TITLE     = "Graphics | Graphics | Graphics | Graphics | Graphics | Graphics | Graphics | Graphics | Graphics | Graphics | Graphics | Graphics"
VARIABLES = "rj"
"T"
"Lambda"
ZONE T="ZONE 001"
 STRANDID=0, SOLUTIONTIME=0
 I=101, J=1, K=1, ZONETYPE=Ordered
 DATAPACKING=BLOCK
 DT=(SINGLE SINGLE SINGLE )
 0.000000000E+000 2.499999937E-005 4.999999874E-005 7.500000356E-005 9.999999747E-005
 1.250000059E-004 1.500000071E-004 1.749999938E-004 1.999999949E-004 2.249999961E-004
 2.500000119E-004 2.749999985E-004 3.000000142E-004 3.250000009E-004 3.499999875E-004
 3.750000033E-004 3.999999899E-004 4.250000056E-004 4.499999923E-004 4.750000080E-004
 5.000000237E-004 5.249999813E-004 5.527660251E-004 5.836039782E-004 6.178540061E-004
 6.558930036E-004 6.981409970E-004 7.450630073E-004 7.971770247E-004 8.550569764E-004
 9.193400037E-004 9.907359490E-004 1.070030034E-003 1.158099971E-003 1.255910029E-003
 1.364539959E-003 1.485200017E-003 1.619199989E-003 1.768029993E-003 1.933319960E-003
 2.116899937E-003 2.320789965E-003 2.547249896E-003 2.798750065E-003 3.078090027E-003
 3.388320096E-003 3.732889891E-003 4.115569871E-003 4.540599883E-003 5.012650043E-003
 5.536930170E-003 6.119209807E-003 6.765920203E-003 7.484170143E-003 8.281899616E-003
 9.167890064E-003 1.015190035E-002 1.124479994E-002 1.245860010E-002 1.380669978E-002
 1.530390047E-002 1.696679927E-002 1.881369948E-002 2.086490020E-002 2.314309962E-002
 2.567330003E-002 2.848350070E-002 3.160449862E-002 3.507089987E-002 3.892080113E-002
 4.319670051E-002 4.794570059E-002 5.322000012E-002 5.907789990E-002 6.558399647E-002
 7.280980051E-002 8.083520085E-002 8.974839747E-002 9.964779764E-002 1.106420010E-001
 1.228540018E-001 1.364160031E-001 1.514780074E-001 1.682080030E-001 1.867879927E-001
 2.074239999E-001 2.303420007E-001 2.557969987E-001 2.840679884E-001 3.154670000E-001
 3.503400087E-001 3.890709877E-001 4.320870042E-001 4.798629880E-001 5.329239964E-001
 5.918560028E-001 6.573089957E-001 7.300029993E-001 8.107399940E-001 9.004089832E-001
 1.000000000E+000
 3.000000000E+002 3.000000000E+002 3.000010071E+002 3.000010071E+002 3.000010071E+002
 3.000020142E+002 3.000029907E+002 3.000050049E+002 3.000079956E+002 3.000150146E+002
 3.000260010E+002 3.000459900E+002 3.000820007E+002 3.001470032E+002 3.002669983E+002
 3.004880066E+002 3.008919983E+002 3.016390076E+002 3.030180054E+002 3.055710144E+002
 3.103030090E+002 3.264309998E+002 4.239570007E+002 5.199160156E+002 6.136079712E+002
 7.043530273E+002 7.915130005E+002 8.745009766E+002 9.527990112E+002 1.025969971E+003
 1.093660034E+003 1.155609985E+003 1.211670044E+003 1.261780029E+003 1.306000000E+003
 1.344459961E+003 1.377410034E+003 1.405160034E+003 1.428119995E+003 1.446729980E+003
 1.461479980E+003 1.472890015E+003 1.481489990E+003 1.487760010E+003 1.492199951E+003
 1.495229980E+003 1.497209961E+003 1.498439941E+003 1.499180054E+003 1.499589966E+003
 1.499810059E+003 1.499920044E+003 1.499969971E+003 1.499989990E+003 1.500000000E+003
 1.500000000E+003 1.500000000E+003 1.500000000E+003 1.500000000E+003 1.500000000E+003
 1.500000000E+003 1.500000000E+003 1.500000000E+003 1.500000000E+003 1.500000000E+003
 1.500000000E+003 1.500000000E+003 1.500000000E+003 1.500000000E+003 1.500000000E+003
 1.500000000E+003 1.500000000E+003 1.500000000E+003 1.500000000E+003 1.500000000E+003
 1.500000000E+003 1.500000000E+003 1.500000000E+003 1.500000000E+003 1.500000000E+003
 1.500000000E+003 1.500000000E+003 1.500000000E+003 1.500000000E+003 1.500000000E+003
 1.500000000E+003 1.500000000E+003 1.500000000E+003 1.500000000E+003 1.500000000E+003
 1.500000000E+003 1.500000000E+003 1.500000000E+003 1.500000000E+003 1.500000000E+003
 1.500000000E+003 1.500000000E+003 1.500000000E+003 1.500000000E+003 1.500000000E+003
 1.500000000E+003
 5.600000024E-001 5.600000024E-001 5.600000024E-001 5.600000024E-001 5.600000024E-001
 5.600000024E-001 5.600000024E-001 5.600000024E-001 5.600000024E-001 5.600000024E-001
 5.600000024E-001 5.600000024E-001 5.600000024E-001 5.600000024E-001 5.600000024E-001
 5.600000024E-001 5.600000024E-001 5.600000024E-001 5.600000024E-001 5.600000024E-001
 5.600000024E-001 5.600000024E-001 5.000000075E-002 5.000000075E-002 5.000000075E-002
 5.000000075E-002 5.000000075E-002 5.000000075E-002 5.000000075E-002 5.000000075E-002
 5.000000075E-002 5.000000075E-002 5.000000075E-002 5.000000075E-002 5.000000075E-002
 5.000000075E-002 5.000000075E-002 5.000000075E-002 5.000000075E-002 5.000000075E-002
 5.000000075E-002 5.000000075E-002 5.000000075E-002 5.000000075E-002 5.000000075E-002
 5.000000075E-002 5.000000075E-002 5.000000075E-002 5.000000075E-002 5.000000075E-002
 5.000000075E-002 5.000000075E-002 5.000000075E-002 5.000000075E-002 5.000000075E-002
 5.000000075E-002 5.000000075E-002 5.000000075E-002 5.000000075E-002 5.000000075E-002
 5.000000075E-002 5.000000075E-002 5.000000075E-002 5.000000075E-002 5.000000075E-002
 5.000000075E-002 5.000000075E-002 5.000000075E-002 5.000000075E-002 5.000000075E-002
 5.000000075E-002 5.000000075E-002 5.000000075E-002 5.000000075E-002 5.000000075E-002
 5.000000075E-002 5.000000075E-002 5.000000075E-002 5.000000075E-002 5.000000075E-002
 5.000000075E-002 5.000000075E-002 5.000000075E-002 5.000000075E-002 5.000000075E-002
 5.000000075E-002 5.000000075E-002 5.000000075E-002 5.000000075E-002 5.000000075E-002
 5.000000075E-002 5.000000075E-002 5.000000075E-002 5.000000075E-002 5.000000075E-002
 5.000000075E-002 5.000000075E-002 5.000000075E-002 5.000000075E-002 5.000000075E-002
 5.000000075E-002
ZONE T="ZONE 001"
 STRANDID=0, SOLUTIONTIME=0
 I=101, J=1, K=1, ZONETYPE=Ordered
 DATAPACKING=BLOCK
 DT=(SINGLE SINGLE SINGLE )
 0.000000000E+000 2.499999937E-005 4.999999874E-005 7.500000356E-005 9.999999747E-005
 1.250000059E-004 1.500000071E-004 1.749999938E-004 1.999999949E-004 2.249999961E-004
 2.500000119E-004 2.749999985E-004 3.000000142E-004 3.250000009E-004 3.499999875E-004
 3.750000033E-004 3.999999899E-004 4.250000056E-004 4.499999923E-004 4.750000080E-004
 5.000000237E-004 5.249999813E-004 5.527660251E-004 5.836039782E-004 6.178540061E-004
 6.558930036E-004 6.981409970E-004 7.450630073E-004 7.971770247E-004 8.550569764E-004
 9.193400037E-004 9.907359490E-004 1.070030034E-003 1.158099971E-003 1.255910029E-003
 1.364539959E-003 1.485200017E-003 1.619199989E-003 1.768029993E-003 1.933319960E-003
 2.116899937E-003 2.320789965E-003 2.547249896E-003 2.798750065E-003 3.078090027E-003
 3.388320096E-003 3.732889891E-003 4.115569871E-003 4.540599883E-003 5.012650043E-003
 5.536930170E-003 6.119209807E-003 6.765920203E-003 7.484170143E-003 8.281899616E-003
 9.167890064E-003 1.015190035E-002 1.124479994E-002 1.245860010E-002 1.380669978E-002
 1.530390047E-002 1.696679927E-002 1.881369948E-002 2.086490020E-002 2.314309962E-002
 2.567330003E-002 2.848350070E-002 3.160449862E-002 3.507089987E-002 3.892080113E-002
 4.319670051E-002 4.794570059E-002 5.322000012E-002 5.907789990E-002 6.558399647E-002
 7.280980051E-002 8.083520085E-002 8.974839747E-002 9.964779764E-002 1.106420010E-001
 1.228540018E-001 1.364160031E-001 1.514780074E-001 1.682080030E-001 1.867879927E-001
 2.074239999E-001 2.303420007E-001 2.557969987E-001 2.840679884E-001 3.154670000E-001
 3.503400087E-001 3.890709877E-001 4.320870042E-001 4.798629880E-001 5.329239964E-001
 5.918560028E-001 6.573089957E-001 7.300029993E-001 8.107399940E-001 9.004089832E-001
 1.000000000E+000
 3.000029907E+002 3.000029907E+002 3.000039978E+002 3.000050049E+002 3.000079956E+002
 3.000109863E+002 3.000180054E+002 3.000280151E+002 3.000450134E+002 3.000740051E+002
 3.001220093E+002 3.002019958E+002 3.003340149E+002 3.005549927E+002 3.009190063E+002
 3.015159912E+002 3.024830017E+002 3.040270081E+002 3.064400024E+002 3.100910034E+002
 3.153540039E+002 3.281589966E+002 4.066250000E+002 4.849920044E+002 5.627960205E+002
 6.395729980E+002 7.148660278E+002 7.882349854E+002 8.592579956E+002 9.275419922E+002
 9.927210083E+002 1.054459961E+003 1.112479980E+003 1.166520020E+003 1.216359985E+003
 1.261859985E+003 1.302910034E+003 1.339449951E+003 1.371510010E+003 1.399160034E+003
 1.422589966E+003 1.442000000E+003 1.457709961E+003 1.470089966E+003 1.479550049E+003
 1.486540039E+003 1.491510010E+003 1.494880005E+003 1.497069946E+003 1.498420044E+003
 1.499199951E+003 1.499619995E+003 1.499839966E+003 1.499930054E+003 1.499979980E+003
 1.499989990E+003 1.500000000E+003 1.500000000E+003 1.500000000E+003 1.500000000E+003
 1.500000000E+003 1.500000000E+003 1.500000000E+003 1.500000000E+003 1.500000000E+003
 1.500000000E+003 1.500000000E+003 1.500000000E+003 1.500000000E+003 1.500000000E+003
 1.500000000E+003 1.500000000E+003 1.500000000E+003 1.500000000E+003 1.500000000E+003
 1.500000000E+003 1.500000000E+003 1.500000000E+003 1.500000000E+003 1.500000000E+003
 1.500000000E+003 1.500000000E+003 1.500000000E+003 1.500000000E+003 1.500000000E+003
 1.500000000E+003 1.500000000E+003 1.500000000E+003 1.500000000E+003 1.500000000E+003
 1.500000000E+003 1.500000000E+003 1.500000000E+003 1.500000000E+003 1.500000000E+003
 1.500000000E+003 1.500000000E+003 1.500000000E+003 1.500000000E+003 1.500000000E+003
 1.500000000E+003
 5.600000024E-001 5.600000024E-001 5.600000024E-001 5.600000024E-001 5.600000024E-001
 5.600000024E-001 5.600000024E-001 5.600000024E-001 5.600000024E-001 5.600000024E-001
 5.600000024E-001 5.600000024E-001 5.600000024E-001 5.600000024E-001 5.600000024E-001
 5.600000024E-001 5.600000024E-001 5.600000024E-001 5.600000024E-001 5.600000024E-001
 5.600000024E-001 5.600000024E-001 5.000000075E-002 5.000000075E-002 5.000000075E-002
 5.000000075E-002 5.000000075E-002 5.000000075E-002 5.000000075E-002 5.000000075E-002
 5.000000075E-002 5.000000075E-002 5.000000075E-002 5.000000075E-002 5.000000075E-002
 5.000000075E-002 5.000000075E-002 5.000000075E-002 5.000000075E-002 5.000000075E-002
 5.000000075E-002 5.000000075E-002 5.000000075E-002 5.000000075E-002 5.000000075E-002
 5.000000075E-002 5.000000075E-002 5.000000075E-002 5.000000075E-002 5.000000075E-002
 5.000000075E-002 5.000000075E-002 5.000000075E-002 5.000000075E-002 5.000000075E-002
 5.000000075E-002 5.000000075E-002 5.000000075E-002 5.000000075E-002 5.000000075E-002
 5.000000075E-002 5.000000075E-002 5.000000075E-002 5.000000075E-002 5.000000075E-002
 5.000000075E-002 5.000000075E-002 5.000000075E-002 5.000000075E-002 5.000000075E-002
 5.000000075E-002 5.000000075E-002 5.000000075E-002 5.000000075E-002 5.000000075E-002
 5.000000075E-002 5.000000075E-002 5.000000075E-002 5.000000075E-002 5.000000075E-002
 5.000000075E-002 5.000000075E-002 5.000000075E-002 5.000000075E-002 5.000000075E-002
 5.000000075E-002 5.000000075E-002 5.000000075E-002 5.000000075E-002 5.000000075E-002
 5.000000075E-002 5.000000075E-002 5.000000075E-002 5.000000075E-002 5.000000075E-002
 5.000000075E-002 5.000000075E-002 5.000000075E-002 5.000000075E-002 5.000000075E-002
 5.000000075E-002
ZONE T="ZONE 001"
 STRANDID=0, SOLUTIONTIME=0
 I=101, J=1, K=1, ZONETYPE=Ordered
 DATAPACKING=BLOCK
 DT=(SINGLE SINGLE SINGLE )
 0.000000000E+000 2.499999937E-005 4.999999874E-005 7.500000356E-005 9.999999747E-005
 1.250000059E-004 1.500000071E-004 1.749999938E-004 1.999999949E-004 2.249999961E-004
 2.500000119E-004 2.749999985E-004 3.000000142E-004 3.250000009E-004 3.499999875E-004
 3.750000033E-004 3.999999899E-004 4.250000056E-004 4.499999923E-004 4.750000080E-004
 5.000000237E-004 5.249999813E-004 5.527660251E-004 5.836039782E-004 6.178540061E-004
 6.558930036E-004 6.981409970E-004 7.450630073E-004 7.971770247E-004 8.550569764E-004
 9.193400037E-004 9.907359490E-004 1.070030034E-003 1.158099971E-003 1.255910029E-003
 1.364539959E-003 1.485200017E-003 1.619199989E-003 1.768029993E-003 1.933319960E-003
 2.116899937E-003 2.320789965E-003 2.547249896E-003 2.798750065E-003 3.078090027E-003
 3.388320096E-003 3.732889891E-003 4.115569871E-003 4.540599883E-003 5.012650043E-003
 5.536930170E-003 6.119209807E-003 6.765920203E-003 7.484170143E-003 8.281899616E-003
 9.167890064E-003 1.015190035E-002 1.124479994E-002 1.245860010E-002 1.380669978E-002
 1.530390047E-002 1.696679927E-002 1.881369948E-002 2.086490020E-002 2.314309962E-002
 2.567330003E-002 2.848350070E-002 3.160449862E-002 3.507089987E-002 3.892080113E-002
 4.319670051E-002 4.794570059E-002 5.322000012E-002 5.907789990E-002 6.558399647E-002
 7.280980051E-002 8.083520085E-002 8.974839747E-002 9.964779764E-002 1.106420010E-001
 1.228540018E-001 1.364160031E-001 1.514780074E-001 1.682080030E-001 1.867879927E-001
 2.074239999E-001 2.303420007E-001 2.557969987E-001 2.840679884E-001 3.154670000E-001
 3.503400087E-001 3.890709877E-001 4.320870042E-001 4.798629880E-001 5.329239964E-001
 5.918560028E-001 6.573089957E-001 7.300029993E-001 8.107399940E-001 9.004089832E-001
 1.000000000E+000
 3.000140076E+002 3.000140076E+002 3.000159912E+002 3.000209961E+002 3.000280151E+002
 3.000400085E+002 3.000599976E+002 3.000899963E+002 3.001380005E+002 3.002130127E+002
 3.003309937E+002 3.005159912E+002 3.008020020E+002 3.012449951E+002 3.019200134E+002
 3.029349976E+002 3.044379883E+002 3.066119995E+002 3.096690063E+002 3.138129883E+002
 3.191700134E+002 3.311390076E+002 4.044920044E+002 4.777699890E+002 5.505650024E+002
 6.224719849E+002 6.931010132E+002 7.620819702E+002 8.290700073E+002 8.937490234E+002
 9.558359985E+002 1.015080017E+003 1.071250000E+003 1.124170044E+003 1.173670044E+003
 1.219619995E+003 1.261910034E+003 1.300459961E+003 1.335219971E+003 1.366160034E+003
 1.393319946E+003 1.416739990E+003 1.436560059E+003 1.452949951E+003 1.466160034E+003
 1.476479980E+003 1.484280029E+003 1.489939941E+003 1.493869995E+003 1.496469971E+003
 1.498079956E+003 1.499030029E+003 1.499540039E+003 1.499800049E+003 1.499920044E+003
 1.499969971E+003 1.499989990E+003 1.500000000E+003 1.500000000E+003 1.500000000E+003
 1.500000000E+003 1.500000000E+003 1.500000000E+003 1.500000000E+003 1.500000000E+003
 1.500000000E+003 1.500000000E+003 1.500000000E+003 1.500000000E+003 1.500000000E+003
 1.500000000E+003 1.500000000E+003 1.500000000E+003 1.500000000E+003 1.500000000E+003
 1.500000000E+003 1.500000000E+003 1.500000000E+003 1.500000000E+003 1.500000000E+003
 1.500000000E+003 1.500000000E+003 1.500000000E+003 1.500000000E+003 1.500000000E+003
 1.500000000E+003 1.500000000E+003 1.500000000E+003 1.500000000E+003 1.500000000E+003
 1.500000000E+003 1.500000000E+003 1.500000000E+003 1.500000000E+003 1.500000000E+003
 1.500000000E+003 1.500000000E+003 1.500000000E+003 1.500000000E+003 1.500000000E+003
 1.500000000E+003
 5.600000024E-001 5.600000024E-001 5.600000024E-001 5.600000024E-001 5.600000024E-001
 5.600000024E-001 5.600000024E-001 5.600000024E-001 5.600000024E-001 5.600000024E-001
 5.600000024E-001 5.600000024E-001 5.600000024E-001 5.600000024E-001 5.600000024E-001
 5.600000024E-001 5.600000024E-001 5.600000024E-001 5.600000024E-001 5.600000024E-001
 5.600000024E-001 5.600000024E-001 5.000000075E-002 5.000000075E-002 5.000000075E-002
 5.000000075E-002 5.000000075E-002 5.000000075E-002 5.000000075E-002 5.000000075E-002
 5.000000075E-002 5.000000075E-002 5.000000075E-002 5.000000075E-002 5.000000075E-002
 5.000000075E-002 5.000000075E-002 5.000000075E-002 5.000000075E-002 5.000000075E-002
 5.000000075E-002 5.000000075E-002 5.000000075E-002 5.000000075E-002 5.000000075E-002
 5.000000075E-002 5.000000075E-002 5.000000075E-002 5.000000075E-002 5.000000075E-002
 5.000000075E-002 5.000000075E-002 5.000000075E-002 5.000000075E-002 5.000000075E-002
 5.000000075E-002 5.000000075E-002 5.000000075E-002 5.000000075E-002 5.000000075E-002
 5.000000075E-002 5.000000075E-002 5.000000075E-002 5.000000075E-002 5.000000075E-002
 5.000000075E-002 5.000000075E-002 5.000000075E-002 5.000000075E-002 5.000000075E-002
 5.000000075E-002 5.000000075E-002 5.000000075E-002 5.000000075E-002 5.000000075E-002
 5.000000075E-002 5.000000075E-002 5.000000075E-002 5.000000075E-002 5.000000075E-002
 5.000000075E-002 5.000000075E-002 5.000000075E-002 5.000000075E-002 5.000000075E-002
 5.000000075E-002 5.000000075E-002 5.000000075E-002 5.000000075E-002 5.000000075E-002
 5.000000075E-002 5.000000075E-002 5.000000075E-002 5.000000075E-002 5.000000075E-002
 5.000000075E-002 5.000000075E-002 5.000000075E-002 5.000000075E-002 5.000000075E-002
 5.000000075E-002
ZONE T="ZONE 001"
 STRANDID=0, SOLUTIONTIME=0
 I=101, J=1, K=1, ZONETYPE=Ordered
 DATAPACKING=BLOCK
 DT=(SINGLE SINGLE SINGLE )
 0.000000000E+000 2.499999937E-005 4.999999874E-005 7.500000356E-005 9.999999747E-005
 1.250000059E-004 1.500000071E-004 1.749999938E-004 1.999999949E-004 2.249999961E-004
 2.500000119E-004 2.749999985E-004 3.000000142E-004 3.250000009E-004 3.499999875E-004
 3.750000033E-004 3.999999899E-004 4.250000056E-004 4.499999923E-004 4.750000080E-004
 5.000000237E-004 5.249999813E-004 5.527660251E-004 5.836039782E-004 6.178540061E-004
 6.558930036E-004 6.981409970E-004 7.450630073E-004 7.971770247E-004 8.550569764E-004
 9.193400037E-004 9.907359490E-004 1.070030034E-003 1.158099971E-003 1.255910029E-003
 1.364539959E-003 1.485200017E-003 1.619199989E-003 1.768029993E-003 1.933319960E-003
 2.116899937E-003 2.320789965E-003 2.547249896E-003 2.798750065E-003 3.078090027E-003
 3.388320096E-003 3.732889891E-003 4.115569871E-003 4.540599883E-003 5.012650043E-003
 5.536930170E-003 6.119209807E-003 6.765920203E-003 7.484170143E-003 8.281899616E-003
 9.167890064E-003 1.015190035E-002 1.124479994E-002 1.245860010E-002 1.380669978E-002
 1.530390047E-002 1.696679927E-002 1.881369948E-002 2.086490020E-002 2.314309962E-002
 2.567330003E-002 2.848350070E-002 3.160449862E-002 3.507089987E-002 3.892080113E-002
 4.319670051E-002 4.794570059E-002 5.322000012E-002 5.907789990E-002 6.558399647E-002
 7.280980051E-002 8.083520085E-002 8.974839747E-002 9.964779764E-002 1.106420010E-001
 1.228540018E-001 1.364160031E-001 1.514780074E-001 1.682080030E-001 1.867879927E-001
 2.074239999E-001 2.303420007E-001 2.557969987E-001 2.840679884E-001 3.154670000E-001
 3.503400087E-001 3.890709877E-001 4.320870042E-001 4.798629880E-001 5.329239964E-001
 5.918560028E-001 6.573089957E-001 7.300029993E-001 8.107399940E-001 9.004089832E-001
 1.000000000E+000
 3.001919861E+002 3.001919861E+002 3.002120056E+002 3.002500000E+002 3.003099976E+002
 3.003999939E+002 3.005289917E+002 3.007120056E+002 3.009700012E+002 3.013280029E+002
 3.018210144E+002 3.024939880E+002 3.034030151E+002 3.046140137E+002 3.062040100E+002
 3.082579956E+002 3.108609924E+002 3.140929871E+002 3.180150146E+002 3.226589966E+002
 3.280180054E+002 3.390849915E+002 4.069039917E+002 4.746600037E+002 5.419790039E+002
 6.084979858E+002 6.738699951E+002 7.377680054E+002 7.998969727E+002 8.599899902E+002
 9.178189697E+002 9.731890259E+002 1.025939941E+003 1.075959961E+003 1.123150024E+003
 1.167439941E+003 1.208800049E+003 1.247219971E+003 1.282680054E+003 1.315199951E+003
 1.344800049E+003 1.371489990E+003 1.395310059E+003 1.416300049E+003 1.434520020E+003
 1.450040039E+003 1.462969971E+003 1.473459961E+003 1.481699951E+003 1.487930054E+003
 1.492430054E+003 1.495530029E+003 1.497530029E+003 1.498729980E+003 1.499400024E+003
 1.499739990E+003 1.499900024E+003 1.499969971E+003 1.499989990E+003 1.500000000E+003
 1.500000000E+003 1.500000000E+003 1.500000000E+003 1.500000000E+003 1.500000000E+003
 1.500000000E+003 1.500000000E+003 1.500000000E+003 1.500000000E+003 1.500000000E+003
 1.500000000E+003 1.500000000E+003 1.500000000E+003 1.500000000E+003 1.500000000E+003
 1.500000000E+003 1.500000000E+003 1.500000000E+003 1.500000000E+003 1.500000000E+003
 1.500000000E+003 1.500000000E+003 1.500000000E+003 1.500000000E+003 1.500000000E+003
 1.500000000E+003 1.500000000E+003 1.500000000E+003 1.500000000E+003 1.500000000E+003
 1.500000000E+003 1.500000000E+003 1.500000000E+003 1.500000000E+003 1.500000000E+003
 1.500000000E+003 1.500000000E+003 1.500000000E+003 1.500000000E+003 1.500000000E+003
 1.500000000E+003
 5.600000024E-001 5.600000024E-001 5.600000024E-001 5.600000024E-001 5.600000024E-001
 5.600000024E-001 5.600000024E-001 5.600000024E-001 5.600000024E-001 5.600000024E-001
 5.600000024E-001 5.600000024E-001 5.600000024E-001 5.600000024E-001 5.600000024E-001
 5.600000024E-001 5.600000024E-001 5.600000024E-001 5.600000024E-001 5.600000024E-001
 5.600000024E-001 5.600000024E-001 5.000000075E-002 5.000000075E-002 5.000000075E-002
 5.000000075E-002 5.000000075E-002 5.000000075E-002 5.000000075E-002 5.000000075E-002
 5.000000075E-002 5.000000075E-002 5.000000075E-002 5.000000075E-002 5.000000075E-002
 5.000000075E-002 5.000000075E-002 5.000000075E-002 5.000000075E-002 5.000000075E-002
 5.000000075E-002 5.000000075E-002 5.000000075E-002 5.000000075E-002 5.000000075E-002
 5.000000075E-002 5.000000075E-002 5.000000075E-002 5.000000075E-002 5.000000075E-002
 5.000000075E-002 5.000000075E-002 5.000000075E-002 5.000000075E-002 5.000000075E-002
 5.000000075E-002 5.000000075E-002 5.000000075E-002 5.000000075E-002 5.000000075E-002
 5.000000075E-002 5.000000075E-002 5.000000075E-002 5.000000075E-002 5.000000075E-002
 5.000000075E-002 5.000000075E-002 5.000000075E-002 5.000000075E-002 5.000000075E-002
 5.000000075E-002 5.000000075E-002 5.000000075E-002 5.000000075E-002 5.000000075E-002
 5.000000075E-002 5.000000075E-002 5.000000075E-002 5.000000075E-002 5.000000075E-002
 5.000000075E-002 5.000000075E-002 5.000000075E-002 5.000000075E-002 5.000000075E-002
 5.000000075E-002 5.000000075E-002 5.000000075E-002 5.000000075E-002 5.000000075E-002
 5.000000075E-002 5.000000075E-002 5.000000075E-002 5.000000075E-002 5.000000075E-002
 5.000000075E-002 5.000000075E-002 5.000000075E-002 5.000000075E-002 5.000000075E-002
 5.000000075E-002
ZONE T="ZONE 001"
 STRANDID=0, SOLUTIONTIME=0
 I=101, J=1, K=1, ZONETYPE=Ordered
 DATAPACKING=BLOCK
 DT=(SINGLE SINGLE SINGLE )
 0.000000000E+000 2.499999937E-005 4.999999874E-005 7.500000356E-005 9.999999747E-005
 1.250000059E-004 1.500000071E-004 1.749999938E-004 1.999999949E-004 2.249999961E-004
 2.500000119E-004 2.749999985E-004 3.000000142E-004 3.250000009E-004 3.499999875E-004
 3.750000033E-004 3.999999899E-004 4.250000056E-004 4.499999923E-004 4.750000080E-004
 5.000000237E-004 5.249999813E-004 5.527660251E-004 5.836039782E-004 6.178540061E-004
 6.558930036E-004 6.981409970E-004 7.450630073E-004 7.971770247E-004 8.550569764E-004
 9.193400037E-004 9.907359490E-004 1.070030034E-003 1.158099971E-003 1.255910029E-003
 1.364539959E-003 1.485200017E-003 1.619199989E-003 1.768029993E-003 1.933319960E-003
 2.116899937E-003 2.320789965E-003 2.547249896E-003 2.798750065E-003 3.078090027E-003
 3.388320096E-003 3.732889891E-003 4.115569871E-003 4.540599883E-003 5.012650043E-003
 5.536930170E-003 6.119209807E-003 6.765920203E-003 7.484170143E-003 8.281899616E-003
 9.167890064E-003 1.015190035E-002 1.124479994E-002 1.245860010E-002 1.380669978E-002
 1.530390047E-002 1.696679927E-002 1.881369948E-002 2.086490020E-002 2.314309962E-002
 2.567330003E-002 2.848350070E-002 3.160449862E-002 3.507089987E-002 3.892080113E-002
 4.319670051E-002 4.794570059E-002 5.322000012E-002 5.907789990E-002 6.558399647E-002
 7.280980051E-002 8.083520085E-002 8.974839747E-002 9.964779764E-002 1.106420010E-001
 1.228540018E-001 1.364160031E-001 1.514780074E-001 1.682080030E-001 1.867879927E-001
 2.074239999E-001 2.303420007E-001 2.557969987E-001 2.840679884E-001 3.154670000E-001
 3.503400087E-001 3.890709877E-001 4.320870042E-001 4.798629880E-001 5.329239964E-001
 5.918560028E-001 6.573089957E-001 7.300029993E-001 8.107399940E-001 9.004089832E-001
 1.000000000E+000
 3.017120056E+002 3.017120056E+002 3.018089905E+002 3.019890137E+002 3.022579956E+002
 3.026300049E+002 3.031210022E+002 3.037550049E+002 3.045559998E+002 3.055559998E+002
 3.067900085E+002 3.082940063E+002 3.101069946E+002 3.122699890E+002 3.148190002E+002
 3.177879944E+002 3.212059937E+002 3.250899963E+002 3.294509888E+002 3.342850037E+002
 3.395780029E+002 3.500979919E+002 4.145629883E+002 4.789679871E+002 5.429600220E+002
 6.061950073E+002 6.683449707E+002 7.291049805E+002 7.881950073E+002 8.453709717E+002
 9.004199829E+002 9.531680298E+002 1.003479980E+003 1.051239990E+003 1.096400024E+003
 1.138900024E+003 1.178739990E+003 1.215930054E+003 1.250500000E+003 1.282489990E+003
 1.311949951E+003 1.338949951E+003 1.363550049E+003 1.385810059E+003 1.405790039E+003
 1.423540039E+003 1.439140015E+003 1.452630005E+003 1.464099976E+003 1.473619995E+003
 1.481310059E+003 1.487319946E+003 1.491810059E+003 1.495010010E+003 1.497160034E+003
 1.498510010E+003 1.499280029E+003 1.499689941E+003 1.499880005E+003 1.499959961E+003
 1.499989990E+003 1.500000000E+003 1.500000000E+003 1.500000000E+003 1.500000000E+003
 1.500000000E+003 1.500000000E+003 1.500000000E+003 1.500000000E+003 1.500000000E+003
 1.500000000E+003 1.500000000E+003 1.500000000E+003 1.500000000E+003 1.500000000E+003
 1.500000000E+003 1.500000000E+003 1.500000000E+003 1.500000000E+003 1.500000000E+003
 1.500000000E+003 1.500000000E+003 1.500000000E+003 1.500000000E+003 1.500000000E+003
 1.500000000E+003 1.500000000E+003 1.500000000E+003 1.500000000E+003 1.500000000E+003
 1.500000000E+003 1.500000000E+003 1.500000000E+003 1.500000000E+003 1.500000000E+003
 1.500000000E+003 1.500000000E+003 1.500000000E+003 1.500000000E+003 1.500000000E+003
 1.500000000E+003
 5.600000024E-001 5.600000024E-001 5.600000024E-001 5.600000024E-001 5.600000024E-001
 5.600000024E-001 5.600000024E-001 5.600000024E-001 5.600000024E-001 5.600000024E-001
 5.600000024E-001 5.600000024E-001 5.600000024E-001 5.600000024E-001 5.600000024E-001
 5.600000024E-001 5.600000024E-001 5.600000024E-001 5.600000024E-001 5.600000024E-001
 5.600000024E-001 5.600000024E-001 5.000000075E-002 5.000000075E-002 5.000000075E-002
 5.000000075E-002 5.000000075E-002 5.000000075E-002 5.000000075E-002 5.000000075E-002
 5.000000075E-002 5.000000075E-002 5.000000075E-002 5.000000075E-002 5.000000075E-002
 5.000000075E-002 5.000000075E-002 5.000000075E-002 5.000000075E-002 5.000000075E-002
 5.000000075E-002 5.000000075E-002 5.000000075E-002 5.000000075E-002 5.000000075E-002
 5.000000075E-002 5.000000075E-002 5.000000075E-002 5.000000075E-002 5.000000075E-002
 5.000000075E-002 5.000000075E-002 5.000000075E-002 5.000000075E-002 5.000000075E-002
 5.000000075E-002 5.000000075E-002 5.000000075E-002 5.000000075E-002 5.000000075E-002
 5.000000075E-002 5.000000075E-002 5.000000075E-002 5.000000075E-002 5.000000075E-002
 5.000000075E-002 5.000000075E-002 5.000000075E-002 5.000000075E-002 5.000000075E-002
 5.000000075E-002 5.000000075E-002 5.000000075E-002 5.000000075E-002 5.000000075E-002
 5.000000075E-002 5.000000075E-002 5.000000075E-002 5.000000075E-002 5.000000075E-002
 5.000000075E-002 5.000000075E-002 5.000000075E-002 5.000000075E-002 5.000000075E-002
 5.000000075E-002 5.000000075E-002 5.000000075E-002 5.000000075E-002 5.000000075E-002
 5.000000075E-002 5.000000075E-002 5.000000075E-002 5.000000075E-002 5.000000075E-002
 5.000000075E-002 5.000000075E-002 5.000000075E-002 5.000000075E-002 5.000000075E-002
 5.000000075E-002
ZONE T="ZONE 001"
 STRANDID=0, SOLUTIONTIME=0
 I=101, J=1, K=1, ZONETYPE=Ordered
 DATAPACKING=BLOCK
 DT=(SINGLE SINGLE SINGLE )
 0.000000000E+000 2.499999937E-005 4.999999874E-005 7.500000356E-005 9.999999747E-005
 1.250000059E-004 1.500000071E-004 1.749999938E-004 1.999999949E-004 2.249999961E-004
 2.500000119E-004 2.749999985E-004 3.000000142E-004 3.250000009E-004 3.499999875E-004
 3.750000033E-004 3.999999899E-004 4.250000056E-004 4.499999923E-004 4.750000080E-004
 5.000000237E-004 5.249999813E-004 5.527660251E-004 5.836039782E-004 6.178540061E-004
 6.558930036E-004 6.981409970E-004 7.450630073E-004 7.971770247E-004 8.550569764E-004
 9.193400037E-004 9.907359490E-004 1.070030034E-003 1.158099971E-003 1.255910029E-003
 1.364539959E-003 1.485200017E-003 1.619199989E-003 1.768029993E-003 1.933319960E-003
 2.116899937E-003 2.320789965E-003 2.547249896E-003 2.798750065E-003 3.078090027E-003
 3.388320096E-003 3.732889891E-003 4.115569871E-003 4.540599883E-003 5.012650043E-003
 5.536930170E-003 6.119209807E-003 6.765920203E-003 7.484170143E-003 8.281899616E-003
 9.167890064E-003 1.015190035E-002 1.124479994E-002 1.245860010E-002 1.380669978E-002
 1.530390047E-002 1.696679927E-002 1.881369948E-002 2.086490020E-002 2.314309962E-002
 2.567330003E-002 2.848350070E-002 3.160449862E-002 3.507089987E-002 3.892080113E-002
 4.319670051E-002 4.794570059E-002 5.322000012E-002 5.907789990E-002 6.558399647E-002
 7.280980051E-002 8.083520085E-002 8.974839747E-002 9.964779764E-002 1.106420010E-001
 1.228540018E-001 1.364160031E-001 1.514780074E-001 1.682080030E-001 1.867879927E-001
 2.074239999E-001 2.303420007E-001 2.557969987E-001 2.840679884E-001 3.154670000E-001
 3.503400087E-001 3.890709877E-001 4.320870042E-001 4.798629880E-001 5.329239964E-001
 5.918560028E-001 6.573089957E-001 7.300029993E-001 8.107399940E-001 9.004089832E-001
 1.000000000E+000
 3.110440063E+002 3.110440063E+002 3.112990112E+002 3.117619934E+002 3.124299927E+002
 3.133089905E+002 3.144079895E+002 3.157359924E+002 3.173059998E+002 3.191289978E+002
 3.212189941E+002 3.235889893E+002 3.262489929E+002 3.292090149E+002 3.324790039E+002
 3.360650024E+002 3.399700012E+002 3.441960144E+002 3.487399902E+002 3.535979919E+002
 3.587630005E+002 3.687929993E+002 4.302569885E+002 4.916640015E+002 5.526779785E+002
 6.129719849E+002 6.722329712E+002 7.301699829E+002 7.865209961E+002 8.410520020E+002
 8.935640259E+002 9.438939819E+002 9.919140015E+002 1.037530029E+003 1.080680054E+003
 1.121339966E+003 1.159510010E+003 1.195199951E+003 1.228469971E+003 1.259359985E+003
 1.287949951E+003 1.314310059E+003 1.338540039E+003 1.360709961E+003 1.380920044E+003
 1.399239990E+003 1.415750000E+003 1.430530029E+003 1.443640015E+003 1.455140015E+003
 1.465079956E+003 1.473540039E+003 1.480569946E+003 1.486260010E+003 1.490709961E+003
 1.494040039E+003 1.496410034E+003 1.497989990E+003 1.498969971E+003 1.499520020E+003
 1.499800049E+003 1.499930054E+003 1.499979980E+003 1.499989990E+003 1.500000000E+003
 1.500000000E+003 1.500000000E+003 1.500000000E+003 1.500000000E+003 1.500000000E+003