TITLE     = "Graphics"
VARIABLES = "i"
"F"
ZONE T="ZONE 001"
 STRANDID=0, SOLUTIONTIME=0
 I=19, J=1, K=1, ZONETYPE=Ordered
 DATAPACKING=BLOCK
 DT=(SINGLE SINGLE )
 1.000000000E+000 2.000000000E+000 3.000000000E+000 4.000000000E+000 5.000000000E+000
 6.000000000E+000 7.000000000E+000 8.000000000E+000 9.000000000E+000 1.000000000E+001
 1.100000000E+001 1.200000000E+001 1.300000000E+001 1.400000000E+001 1.500000000E+001
 1.600000000E+001 1.700000000E+001 1.800000000E+001 1.900000000E+001
 2.623290000E+006 1.040910000E+006 3.177580000E+005 4.929250000E+004 6.293140259E+002
 2.070709991E+002 3.157990074E+001 7.215569973E+000 1.725149989E+000 3.345339894E-001
 7.507620007E-002 1.868709922E-002 3.720369888E-003 8.183780010E-004 2.070759947E-004
 4.179669850E-005 9.011910151E-006 2.299600055E-006 4.704700132E-007
ZONE T="ZONE 001"
 STRANDID=0, SOLUTIONTIME=0
 I=19, J=1, K=1, ZONETYPE=Ordered
 DATAPACKING=BLOCK
 DT=(SINGLE SINGLE )
 1.000000000E+000 2.000000000E+000 3.000000000E+000 4.000000000E+000 5.000000000E+000
 6.000000000E+000 7.000000000E+000 8.000000000E+000 9.000000000E+000 1.000000000E+001
 1.100000000E+001 1.200000000E+001 1.300000000E+001 1.400000000E+001 1.500000000E+001
 1.600000000E+001 1.700000000E+001 1.800000000E+001 1.900000000E+001
 1.655380000E+006 6.558640000E+005 1.991870000E+005 3.030659961E+004 2.207489929E+002
 1.384929962E+002 1.545650005E+001 4.131969929E+000 9.682109952E-001 1.479849964E-001
 3.876459971E-002 1.008129958E-002 1.591469976E-003 4.007619864E-004 1.088139979E-004
 1.748800059E-005 4.205599907E-006 1.175829993E-006 1.927609929E-007
ZONE T="ZONE 001"
 STRANDID=0, SOLUTIONTIME=0
 I=18, J=1, K=1, ZONETYPE=Ordered
 DATAPACKING=BLOCK
 DT=(SINGLE SINGLE )
 1.000000000E+000 2.000000000E+000 3.000000000E+000 4.000000000E+000 5.000000000E+000
 6.000000000E+000 7.000000000E+000 8.000000000E+000 9.000000000E+000 1.000000000E+001
 1.100000000E+001 1.200000000E+001 1.300000000E+001 1.400000000E+001 1.500000000E+001
 1.600000000E+001 1.700000000E+001 1.800000000E+001
 9.317450000E+005 3.684070000E+005 1.111190000E+005 1.649630078E+004 9.480580139E+001
 9.370780182E+001 9.192009926E+000 2.713040113E+000 5.968120098E-001 7.925809920E-002
 2.362339944E-002 5.650769919E-003 7.607620209E-004 2.237589943E-004 5.488070019E-005
 7.415109849E-006 2.136669991E-006 5.332020123E-007
ZONE T="ZONE 001"
 STRANDID=0, SOLUTIONTIME=0
 I=17, J=1, K=1, ZONETYPE=Ordered
 DATAPACKING=BLOCK
 DT=(SINGLE SINGLE )
 1.000000000E+000 2.000000000E+000 3.000000000E+000 4.000000000E+000 5.000000000E+000
 6.000000000E+000 7.000000000E+000 8.000000000E+000 9.000000000E+000 1.000000000E+001
 1.100000000E+001 1.200000000E+001 1.300000000E+001 1.400000000E+001 1.500000000E+001
 1.600000000E+001 1.700000000E+001
 4.363930000E+005 1.720720000E+005 5.143500000E+004 7.416189941E+003 9.511250305E+001
 5.545330048E+001 4.795100212E+000 1.531579971E+000 3.028950095E-001 3.415619954E-002
 1.126279961E-002 2.219589893E-003 2.548400080E-004 8.560429706E-005 1.637179957E-005
 1.915489975E-006 6.506389809E-007
