TITLE     = "Graphics"
VARIABLES = "i"
"F"
ZONE T="ZONE 001"
 STRANDID=0, SOLUTIONTIME=0
 I=19, J=1, K=1, ZONETYPE=Ordered
 DATAPACKING=BLOCK
 DT=(SINGLE SINGLE )
 1.000000000E+000 2.000000000E+000 3.000000000E+000 4.000000000E+000 5.000000000E+000
 6.000000000E+000 7.000000000E+000 8.000000000E+000 9.000000000E+000 1.000000000E+001
 1.100000000E+001 1.200000000E+001 1.300000000E+001 1.400000000E+001 1.500000000E+001
 1.600000000E+001 1.700000000E+001 1.800000000E+001 1.900000000E+001
 5.999720000E+007 2.285860000E+007 6.421420000E+006 8.585640000E+005 2.181519922E+004
 7.330999756E+002 1.163750000E+002 2.584519958E+001 3.753429890E+000 6.278390288E-001
 2.036750019E-001 3.675309941E-002 4.879919812E-003 1.695020008E-003 3.576719901E-004
 4.389480091E-005 1.378950037E-005 3.366950068E-006 4.324290046E-007
ZONE T="ZONE 001"
 STRANDID=0, SOLUTIONTIME=0
 I=16, J=1, K=1, ZONETYPE=Ordered
 DATAPACKING=BLOCK
 DT=(SINGLE SINGLE )
 1.000000000E+000 2.000000000E+000 3.000000000E+000 4.000000000E+000 5.000000000E+000
 6.000000000E+000 7.000000000E+000 8.000000000E+000 9.000000000E+000 1.000000000E+001
 1.100000000E+001 1.200000000E+001 1.300000000E+001 1.400000000E+001 1.500000000E+001
 1.600000000E+001
 1.940080078E+004 1.370880005E+003 3.632860107E+002 5.311289978E+001 7.364109993E+000
 2.447860003E+000 3.988530040E-001 5.627129972E-002 1.955799945E-002 3.166629933E-003
 4.608719901E-004 1.594500063E-004 2.517659959E-005 3.818789992E-006 1.301860038E-006
 1.998599970E-007
ZONE T="ZONE 001"
 STRANDID=0, SOLUTIONTIME=0
 I=15, J=1, K=1, ZONETYPE=Ordered
 DATAPACKING=BLOCK
 DT=(SINGLE SINGLE )
 1.000000000E+000 2.000000000E+000 3.000000000E+000 4.000000000E+000 5.000000000E+000
 6.000000000E+000 7.000000000E+000 8.000000000E+000 9.000000000E+000 1.000000000E+001
 1.100000000E+001 1.200000000E+001 1.300000000E+001 1.400000000E+001 1.500000000E+001
 3.983219971E+003 6.054669800E+002 8.822409821E+001 9.440569878E+000 3.080749989E+000
 4.990789890E-001 6.443940103E-002 2.212299965E-002 3.409170080E-003 5.046399892E-004
 1.671140053E-004 2.349920032E-005 4.104189884E-006 1.257459985E-006 1.612099965E-007
ZONE T="ZONE 001"
 STRANDID=0, SOLUTIONTIME=0
 I=13, J=1, K=1, ZONETYPE=Ordered
 DATAPACKING=BLOCK
 DT=(SINGLE SINGLE )
 1.000000000E+000 2.000000000E+000 3.000000000E+000 4.000000000E+000 5.000000000E+000
 6.000000000E+000 7.000000000E+000 8.000000000E+000 9.000000000E+000 1.000000000E+001
 1.100000000E+001 1.200000000E+001 1.300000000E+001
 7.061920166E+002 1.687550049E+002 1.201659966E+001 2.629869938E+000 5.338230133E-001
 5.262999982E-002 1.584490016E-002 3.074170090E-003 3.186379909E-004 1.104620023E-004
 1.824510036E-005 2.262280077E-006 7.623510214E-007
ZONE T="ZONE 001"
 STRANDID=0, SOLUTIONTIME=0
 I=12, J=1, K=1, ZONETYPE=Ordered
 DATAPACKING=BLOCK
 DT=(SINGLE SINGLE )
 1.000000000E+000 2.000000000E+000 3.000000000E+000 4.000000000E+000 5.000000000E+000
 6.000000000E+000 7.000000000E+000 8.000000000E+000 9.000000000E+000 1.000000000E+001
 1.100000000E+001 1.200000000E+001
 2.155789948E+002 5.758179855E+001 3.366869926E+000 8.611159921E-001 1.386329979E-001
 1.419110037E-002 4.613799974E-003 6.857159897E-004 9.149259859E-005 2.841549940E-005
 3.435359986E-006 6.644070254E-007
ZONE T="ZONE 001"
 STRANDID=0, SOLUTIONTIME=0
 I=10, J=1, K=1, ZONETYPE=Ordered
 DATAPACKING=BLOCK
 DT=(SINGLE SINGLE )
 1.000000000E+000 2.000000000E+000 3.000000000E+000 4.000000000E+000 5.000000000E+000
 6.000000000E+000 7.000000000E+000 8.000000000E+000 9.000000000E+000 1.000000000E+001
 8.815309525E+000 2.476870060E+000 1.366080046E-001 3.428329900E-002 4.468940198E-003
 5.449629971E-004 1.572150068E-004 1.789280032E-005 3.399479965E-006 8.051010241E-007
ZONE T="ZONE 001"
 STRANDID=0, SOLUTIONTIME=0
 I=8, J=1, K=1, ZONETYPE=Ordered
 DATAPACKING=BLOCK
 DT=(SINGLE SINGLE )
 1.000000000E+000 2.000000000E+000 3.000000000E+000 4.000000000E+000 5.000000000E+000
 6.000000000E+000 7.000000000E+000 8.000000000E+000
 3.982219994E-001 1.119289994E-001 6.163440179E-003 1.541330013E-003 1.986050047E-004
 2.448039959E-005 6.986890185E-006 7.826690194E-007
ZONE T="ZONE 001"
 STRANDID=0, SOLUTIONTIME=0
 I=2, J=1, K=1, ZONETYPE=Ordered
 DATAPACKING=BLOCK
 DT=(SINGLE SINGLE )
 1.000000000E+000 2.000000000E+000
 3.247100040E-006 8.982510167E-007
ZONE T="ZONE 001"
 STRANDID=0, SOLUTIONTIME=0
 I=19, J=1, K=1, ZONETYPE=Ordered
 DATAPACKING=BLOCK
 DT=(SINGLE SINGLE )
 1.000000000E+000 2.000000000E+000 3.000000000E+000 4.000000000E+000 5.000000000E+000
 6.000000000E+000 7.000000000E+000 8.000000000E+000 9.000000000E+000 1.000000000E+001
 1.100000000E+001 1.200000000E+001 1.300000000E+001 1.400000000E+001 1.500000000E+001
 1.600000000E+001 1.700000000E+001 1.800000000E+001 1.900000000E+001
 5.999720000E+007 2.285860000E+007 6.421420000E+006 8.585640000E+005 2.181519922E+004
 7.330999756E+002 1.163750000E+002 2.584519958E+001 3.753429890E+000 6.278390288E-001
 2.036750019E-001 3.675309941E-002 4.879919812E-003 1.695020008E-003 3.576719901E-004
 4.389480091E-005 1.378950037E-005 3.366950068E-006 4.324290046E-007
ZONE T="ZONE 001"
 STRANDID=0, SOLUTIONTIME=0
 I=2, J=1, K=1, ZONETYPE=Ordered
 DATAPACKING=BLOCK
 DT=(SINGLE SINGLE )
 1.000000000E+000 2.000000000E+000
 1.743320013E-006 4.808949825E-007
