TITLE     = "Graphics | Graphics | Graphics | Graphics | Graphics | Graphics | Graphics | Graphics | Graphics"
VARIABLES = "rj"
"T"
"Lambda"
ZONE T="ZONE 001"
 STRANDID=0, SOLUTIONTIME=0
 I=101, J=1, K=1, ZONETYPE=Ordered
 DATAPACKING=BLOCK
 DT=(SINGLE SINGLE SINGLE )
 0.000000000E+000 2.499999937E-005 4.999999874E-005 7.500000356E-005 9.999999747E-005
 1.250000059E-004 1.500000071E-004 1.749999938E-004 1.999999949E-004 2.249999961E-004
 2.500000119E-004 2.749999985E-004 3.000000142E-004 3.250000009E-004 3.499999875E-004
 3.750000033E-004 3.999999899E-004 4.250000056E-004 4.499999923E-004 4.750000080E-004
 5.000000237E-004 5.249999813E-004 5.527660251E-004 5.836039782E-004 6.178540061E-004
 6.558930036E-004 6.981409970E-004 7.450630073E-004 7.971770247E-004 8.550569764E-004
 9.193400037E-004 9.907359490E-004 1.070030034E-003 1.158099971E-003 1.255910029E-003
 1.364539959E-003 1.485200017E-003 1.619199989E-003 1.768029993E-003 1.933319960E-003
 2.116899937E-003 2.320789965E-003 2.547249896E-003 2.798750065E-003 3.078090027E-003
 3.388320096E-003 3.732889891E-003 4.115569871E-003 4.540599883E-003 5.012650043E-003
 5.536930170E-003 6.119209807E-003 6.765920203E-003 7.484170143E-003 8.281899616E-003
 9.167890064E-003 1.015190035E-002 1.124479994E-002 1.245860010E-002 1.380669978E-002
 1.530390047E-002 1.696679927E-002 1.881369948E-002 2.086490020E-002 2.314309962E-002
 2.567330003E-002 2.848350070E-002 3.160449862E-002 3.507089987E-002 3.892080113E-002
 4.319670051E-002 4.794570059E-002 5.322000012E-002 5.907789990E-002 6.558399647E-002
 7.280980051E-002 8.083520085E-002 8.974839747E-002 9.964779764E-002 1.106420010E-001
 1.228540018E-001 1.364160031E-001 1.514780074E-001 1.682080030E-001 1.867879927E-001
 2.074239999E-001 2.303420007E-001 2.557969987E-001 2.840679884E-001 3.154670000E-001
 3.503400087E-001 3.890709877E-001 4.320870042E-001 4.798629880E-001 5.329239964E-001
 5.918560028E-001 6.573089957E-001 7.300029993E-001 8.107399940E-001 9.004089832E-001
 1.000000000E+000
 3.000000000E+002 3.000000000E+002 3.000000000E+002 3.000000000E+002 3.000000000E+002
 3.000000000E+002 3.000000000E+002 3.000000000E+002 3.000000000E+002 3.000000000E+002
 3.000000000E+002 3.000000000E+002 3.000000000E+002 3.000000000E+002 3.000000000E+002
 3.000000000E+002 3.000000000E+002 3.000000000E+002 3.000000000E+002 3.000000000E+002
 3.000000000E+002 1.500000000E+003 1.500000000E+003 1.500000000E+003 1.500000000E+003
 1.500000000E+003 1.500000000E+003 1.500000000E+003 1.500000000E+003 1.500000000E+003
 1.500000000E+003 1.500000000E+003 1.500000000E+003 1.500000000E+003 1.500000000E+003
 1.500000000E+003 1.500000000E+003 1.500000000E+003 1.500000000E+003 1.500000000E+003
 1.500000000E+003 1.500000000E+003 1.500000000E+003 1.500000000E+003 1.500000000E+003
 1.500000000E+003 1.500000000E+003 1.500000000E+003 1.500000000E+003 1.500000000E+003
 1.500000000E+003 1.500000000E+003 1.500000000E+003 1.500000000E+003 1.500000000E+003
 1.500000000E+003 1.500000000E+003 1.500000000E+003 1.500000000E+003 1.500000000E+003
 1.500000000E+003 1.500000000E+003 1.500000000E+003 1.500000000E+003 1.500000000E+003
 1.500000000E+003 1.500000000E+003 1.500000000E+003 1.500000000E+003 1.500000000E+003
 1.500000000E+003 1.500000000E+003 1.500000000E+003 1.500000000E+003 1.500000000E+003
 1.500000000E+003 1.500000000E+003 1.500000000E+003 1.500000000E+003 1.500000000E+003
 1.500000000E+003 1.500000000E+003 1.500000000E+003 1.500000000E+003 1.500000000E+003
 1.500000000E+003 1.500000000E+003 1.500000000E+003 1.500000000E+003 1.500000000E+003
 1.500000000E+003 1.500000000E+003 1.500000000E+003 1.500000000E+003 1.500000000E+003
 1.500000000E+003 1.500000000E+003 1.500000000E+003 1.500000000E+003 1.500000000E+003
 1.500000000E+003
 5.600000024E-001 5.600000024E-001 5.600000024E-001 5.600000024E-001 5.600000024E-001
 5.600000024E-001 5.600000024E-001 5.600000024E-001 5.600000024E-001 5.600000024E-001
 5.600000024E-001 5.600000024E-001 5.600000024E-001 5.600000024E-001 5.600000024E-001
 5.600000024E-001 5.600000024E-001 5.600000024E-001 5.600000024E-001 5.600000024E-001
 5.600000024E-001 5.000000075E-002 5.000000075E-002 5.000000075E-002 5.000000075E-002
 5.000000075E-002 5.000000075E-002 5.000000075E-002 5.000000075E-002 5.000000075E-002
 5.000000075E-002 5.000000075E-002 5.000000075E-002 5.000000075E-002 5.000000075E-002
 5.000000075E-002 5.000000075E-002 5.000000075E-002 5.000000075E-002 5.000000075E-002
 5.000000075E-002 5.000000075E-002 5.000000075E-002 5.000000075E-002 5.000000075E-002
 5.000000075E-002 5.000000075E-002 5.000000075E-002 5.000000075E-002 5.000000075E-002
 5.000000075E-002 5.000000075E-002 5.000000075E-002 5.000000075E-002 5.000000075E-002
 5.000000075E-002 5.000000075E-002 5.000000075E-002 5.000000075E-002 5.000000075E-002
 5.000000075E-002 5.000000075E-002 5.000000075E-002 5.000000075E-002 5.000000075E-002
 5.000000075E-002 5.000000075E-002 5.000000075E-002 5.000000075E-002 5.000000075E-002
 5.000000075E-002 5.000000075E-002 5.000000075E-002 5.000000075E-002 5.000000075E-002
 5.000000075E-002 5.000000075E-002 5.000000075E-002 5.000000075E-002 5.000000075E-002
 5.000000075E-002 5.000000075E-002 5.000000075E-002 5.000000075E-002 5.000000075E-002
 5.000000075E-002 5.000000075E-002 5.000000075E-002 5.000000075E-002 5.000000075E-002
 5.000000075E-002 5.000000075E-002 5.000000075E-002 5.000000075E-002 5.000000075E-002
 5.000000075E-002 5.000000075E-002 5.000000075E-002 5.000000075E-002 5.000000075E-002
 5.000000075E-002
ZONE T="ZONE 001"
 STRANDID=0, SOLUTIONTIME=0
 I=101, J=1, K=1, ZONETYPE=Ordered
 DATAPACKING=BLOCK
 DT=(SINGLE SINGLE SINGLE )
 0.000000000E+000 2.499999937E-005 4.999999874E-005 7.500000356E-005 9.999999747E-005
 1.250000059E-004 1.500000071E-004 1.749999938E-004 1.999999949E-004 2.249999961E-004
 2.500000119E-004 2.749999985E-004 3.000000142E-004 3.250000009E-004 3.499999875E-004
 3.750000033E-004 3.999999899E-004 4.250000056E-004 4.499999923E-004 4.750000080E-004
 5.000000237E-004 5.249999813E-004 5.527660251E-004 5.836039782E-004 6.178540061E-004
 6.558930036E-004 6.981409970E-004 7.450630073E-004 7.971770247E-004 8.550569764E-004
 9.193400037E-004 9.907359490E-004 1.070030034E-003 1.158099971E-003 1.255910029E-003
 1.364539959E-003 1.485200017E-003 1.619199989E-003 1.768029993E-003 1.933319960E-003
 2.116899937E-003 2.320789965E-003 2.547249896E-003 2.798750065E-003 3.078090027E-003
 3.388320096E-003 3.732889891E-003 4.115569871E-003 4.540599883E-003 5.012650043E-003
 5.536930170E-003 6.119209807E-003 6.765920203E-003 7.484170143E-003 8.281899616E-003
 9.167890064E-003 1.015190035E-002 1.124479994E-002 1.245860010E-002 1.380669978E-002
 1.530390047E-002 1.696679927E-002 1.881369948E-002 2.086490020E-002 2.314309962E-002
 2.567330003E-002 2.848350070E-002 3.160449862E-002 3.507089987E-002 3.892080113E-002
 4.319670051E-002 4.794570059E-002 5.322000012E-002 5.907789990E-002 6.558399647E-002
 7.280980051E-002 8.083520085E-002 8.974839747E-002 9.964779764E-002 1.106420010E-001
 1.228540018E-001 1.364160031E-001 1.514780074E-001 1.682080030E-001 1.867879927E-001
 2.074239999E-001 2.303420007E-001 2.557969987E-001 2.840679884E-001 3.154670000E-001
 3.503400087E-001 3.890709877E-001 4.320870042E-001 4.798629880E-001 5.329239964E-001
 5.918560028E-001 6.573089957E-001 7.300029993E-001 8.107399940E-001 9.004089832E-001
 1.000000000E+000
 3.000000000E+002 3.000000000E+002 3.000000000E+002 3.000000000E+002 3.000010071E+002
 3.000010071E+002 3.000020142E+002 3.000029907E+002 3.000060120E+002 3.000109863E+002
 3.000190125E+002 3.000350037E+002 3.000629883E+002 3.001170044E+002 3.002179871E+002
 3.004079895E+002 3.007650146E+002 3.014429932E+002 3.027300110E+002 3.051820068E+002
 3.098630066E+002 3.263089905E+002 4.256449890E+002 5.232700195E+002 6.184569702E+002
 7.105089722E+002 7.987689819E+002 8.826380005E+002 9.615900269E+002 1.035180054E+003
 1.103069946E+003 1.164989990E+003 1.220829956E+003 1.270530029E+003 1.314180054E+003
 1.351949951E+003 1.384109985E+003 1.411030029E+003 1.433130005E+003 1.450890015E+003
 1.464849976E+003 1.475540039E+003 1.483500000E+003 1.489239990E+003 1.493239990E+003
 1.495930054E+003 1.497660034E+003 1.498719971E+003 1.499339966E+003 1.499680054E+003
 1.499849976E+003 1.499939941E+003 1.499979980E+003 1.499989990E+003 1.500000000E+003
 1.500000000E+003 1.500000000E+003 1.500000000E+003 1.500000000E+003 1.500000000E+003
 1.500000000E+003 1.500000000E+003 1.500000000E+003 1.500000000E+003 1.500000000E+003
 1.500000000E+003 1.500000000E+003 1.500000000E+003 1.500000000E+003 1.500000000E+003
 1.500000000E+003 1.500000000E+003 1.500000000E+003 1.500000000E+003 1.500000000E+003
 1.500000000E+003 1.500000000E+003 1.500000000E+003 1.500000000E+003 1.500000000E+003
 1.500000000E+003 1.500000000E+003 1.500000000E+003 1.500000000E+003 1.500000000E+003
 1.500000000E+003 1.500000000E+003 1.500000000E+003 1.500000000E+003 1.500000000E+003
 1.500000000E+003 1.500000000E+003 1.500000000E+003 1.500000000E+003 1.500000000E+003
 1.500000000E+003 1.500000000E+003 1.500000000E+003 1.500000000E+003 1.500000000E+003
 1.500000000E+003
 5.600000024E-001 5.600000024E-001 5.600000024E-001 5.600000024E-001 5.600000024E-001
 5.600000024E-001 5.600000024E-001 5.600000024E-001 5.600000024E-001 5.600000024E-001
 5.600000024E-001 5.600000024E-001 5.600000024E-001 5.600000024E-001 5.600000024E-001
 5.600000024E-001 5.600000024E-001 5.600000024E-001 5.600000024E-001 5.600000024E-001
 5.600000024E-001 5.000000075E-002 5.000000075E-002 5.000000075E-002 5.000000075E-002
 5.000000075E-002 5.000000075E-002 5.000000075E-002 5.000000075E-002 5.000000075E-002
 5.000000075E-002 5.000000075E-002 5.000000075E-002 5.000000075E-002 5.000000075E-002
 5.000000075E-002 5.000000075E-002 5.000000075E-002 5.000000075E-002 5.000000075E-002
 5.000000075E-002 5.000000075E-002 5.000000075E-002 5.000000075E-002 5.000000075E-002
 5.000000075E-002 5.000000075E-002 5.000000075E-002 5.000000075E-002 5.000000075E-002
 5.000000075E-002 5.000000075E-002 5.000000075E-002 5.000000075E-002 5.000000075E-002
 5.000000075E-002 5.000000075E-002 5.000000075E-002 5.000000075E-002 5.000000075E-002
 5.000000075E-002 5.000000075E-002 5.000000075E-002 5.000000075E-002 5.000000075E-002
 5.000000075E-002 5.000000075E-002 5.000000075E-002 5.000000075E-002 5.000000075E-002
 5.000000075E-002 5.000000075E-002 5.000000075E-002 5.000000075E-002 5.000000075E-002
 5.000000075E-002 5.000000075E-002 5.000000075E-002 5.000000075E-002 5.000000075E-002
 5.000000075E-002 5.000000075E-002 5.000000075E-002 5.000000075E-002 5.000000075E-002
 5.000000075E-002 5.000000075E-002 5.000000075E-002 5.000000075E-002 5.000000075E-002
 5.000000075E-002 5.000000075E-002 5.000000075E-002 5.000000075E-002 5.000000075E-002
 5.000000075E-002 5.000000075E-002 5.000000075E-002 5.000000075E-002 5.000000075E-002
 5.000000075E-002
ZONE T="ZONE 001"
 STRANDID=0, SOLUTIONTIME=0
 I=101, J=1, K=1, ZONETYPE=Ordered
 DATAPACKING=BLOCK
 DT=(SINGLE SINGLE SINGLE )
 0.000000000E+000 2.499999937E-005 4.999999874E-005 7.500000356E-005 9.999999747E-005
 1.250000059E-004 1.500000071E-004 1.749999938E-004 1.999999949E-004 2.249999961E-004
 2.500000119E-004 2.749999985E-004 3.000000142E-004 3.250000009E-004 3.499999875E-004
 3.750000033E-004 3.999999899E-004 4.250000056E-004 4.499999923E-004 4.750000080E-004
 5.000000237E-004 5.249999813E-004 5.527660251E-004 5.836039782E-004 6.178540061E-004
 6.558930036E-004 6.981409970E-004 7.450630073E-004 7.971770247E-004 8.550569764E-004
 9.193400037E-004 9.907359490E-004 1.070030034E-003 1.158099971E-003 1.255910029E-003
 1.364539959E-003 1.485200017E-003 1.619199989E-003 1.768029993E-003 1.933319960E-003
 2.116899937E-003 2.320789965E-003 2.547249896E-003 2.798750065E-003 3.078090027E-003
 3.388320096E-003 3.732889891E-003 4.115569871E-003 4.540599883E-003 5.012650043E-003
 5.536930170E-003 6.119209807E-003 6.765920203E-003 7.484170143E-003 8.281899616E-003
 9.167890064E-003 1.015190035E-002 1.124479994E-002 1.245860010E-002 1.380669978E-002
 1.530390047E-002 1.696679927E-002 1.881369948E-002 2.086490020E-002 2.314309962E-002
 2.567330003E-002 2.848350070E-002 3.160449862E-002 3.507089987E-002 3.892080113E-002
 4.319670051E-002 4.794570059E-002 5.322000012E-002 5.907789990E-002 6.558399647E-002
 7.280980051E-002 8.083520085E-002 8.974839747E-002 9.964779764E-002 1.106420010E-001
 1.228540018E-001 1.364160031E-001 1.514780074E-001 1.682080030E-001 1.867879927E-001
 2.074239999E-001 2.303420007E-001 2.557969987E-001 2.840679884E-001 3.154670000E-001
 3.503400087E-001 3.890709877E-001 4.320870042E-001 4.798629880E-001 5.329239964E-001
 5.918560028E-001 6.573089957E-001 7.300029993E-001 8.107399940E-001 9.004089832E-001
 1.000000000E+000
 3.000029907E+002 3.000029907E+002 3.000029907E+002 3.000039978E+002 3.000060120E+002
 3.000090027E+002 3.000150146E+002 3.000239868E+002 3.000390015E+002 3.000639954E+002
 3.001059875E+002 3.001780090E+002 3.002980042E+002 3.005010071E+002 3.008389893E+002
 3.014010010E+002 3.023219910E+002 3.038120117E+002 3.061669922E+002 3.097739868E+002
 3.150280151E+002 3.279079895E+002 4.068389893E+002 4.856679993E+002 5.639260254E+002
 6.411430054E+002 7.168590088E+002 7.906229858E+002 8.620089722E+002 9.306149902E+002
 9.960679932E+002 1.058030029E+003 1.116209961E+003 1.170329956E+003 1.220199951E+003
 1.265640015E+003 1.306560059E+003 1.342910034E+003 1.374709961E+003 1.402060059E+003
 1.425140015E+003 1.444189941E+003 1.459530029E+003 1.471560059E+003 1.480689941E+003
 1.487380005E+003 1.492099976E+003 1.495290039E+003 1.497329956E+003 1.498579956E+003
 1.499290039E+003 1.499670044E+003 1.499859985E+003 1.499939941E+003 1.499979980E+003
 1.499989990E+003 1.500000000E+003 1.500000000E+003 1.500000000E+003 1.500000000E+003
 1.500000000E+003 1.500000000E+003 1.500000000E+003 1.500000000E+003 1.500000000E+003
 1.500000000E+003 1.500000000E+003 1.500000000E+003 1.500000000E+003 1.500000000E+003
 1.500000000E+003 1.500000000E+003 1.500000000E+003 1.500000000E+003 1.500000000E+003
 1.500000000E+003 1.500000000E+003 1.500000000E+003 1.500000000E+003 1.500000000E+003
 1.500000000E+003 1.500000000E+003 1.500000000E+003 1.500000000E+003 1.500000000E+003
 1.500000000E+003 1.500000000E+003 1.500000000E+003 1.500000000E+003 1.500000000E+003
 1.500000000E+003 1.500000000E+003 1.500000000E+003 1.500000000E+003 1.500000000E+003
 1.500000000E+003 1.500000000E+003 1.500000000E+003 1.500000000E+003 1.500000000E+003
 1.500000000E+003
 5.600000024E-001 5.600000024E-001 5.600000024E-001 5.600000024E-001 5.600000024E-001
 5.600000024E-001 5.600000024E-001 5.600000024E-001 5.600000024E-001 5.600000024E-001
 5.600000024E-001 5.600000024E-001 5.600000024E-001 5.600000024E-001 5.600000024E-001
 5.600000024E-001 5.600000024E-001 5.600000024E-001 5.600000024E-001 5.600000024E-001
 5.600000024E-001 5.000000075E-002 5.000000075E-002 5.000000075E-002 5.000000075E-002
 5.000000075E-002 5.000000075E-002 5.000000075E-002 5.000000075E-002 5.000000075E-002
 5.000000075E-002 5.000000075E-002 5.000000075E-002 5.000000075E-002 5.000000075E-002
 5.000000075E-002 5.000000075E-002 5.000000075E-002 5.000000075E-002 5.000000075E-002
 5.000000075E-002 5.000000075E-002 5.000000075E-002 5.000000075E-002 5.000000075E-002
 5.000000075E-002 5.000000075E-002 5.000000075E-002 5.000000075E-002 5.000000075E-002
 5.000000075E-002 5.000000075E-002 5.000000075E-002 5.000000075E-002 5.000000075E-002
 5.000000075E-002 5.000000075E-002 5.000000075E-002 5.000000075E-002 5.000000075E-002
 5.000000075E-002 5.000000075E-002 5.000000075E-002 5.000000075E-002 5.000000075E-002
 5.000000075E-002 5.000000075E-002 5.000000075E-002 5.000000075E-002 5.000000075E-002
 5.000000075E-002 5.000000075E-002 5.000000075E-002 5.000000075E-002 5.000000075E-002
 5.000000075E-002 5.000000075E-002 5.000000075E-002 5.000000075E-002 5.000000075E-002
 5.000000075E-002 5.000000075E-002 5.000000075E-002 5.000000075E-002 5.000000075E-002
 5.000000075E-002 5.000000075E-002 5.000000075E-002 5.000000075E-002 5.000000075E-002
 5.000000075E-002 5.000000075E-002 5.000000075E-002 5.000000075E-002 5.000000075E-002
 5.000000075E-002 5.000000075E-002 5.000000075E-002 5.000000075E-002 5.000000075E-002
 5.000000075E-002
ZONE T="ZONE 001"
 STRANDID=0, SOLUTIONTIME=0
 I=101, J=1, K=1, ZONETYPE=Ordered
 DATAPACKING=BLOCK
 DT=(SINGLE SINGLE SINGLE )
 0.000000000E+000 2.499999937E-005 4.999999874E-005 7.500000356E-005 9.999999747E-005
 1.250000059E-004 1.500000071E-004 1.749999938E-004 1.999999949E-004 2.249999961E-004
 2.500000119E-004 2.749999985E-004 3.000000142E-004 3.250000009E-004 3.499999875E-004
 3.750000033E-004 3.999999899E-004 4.250000056E-004 4.499999923E-004 4.750000080E-004
 5.000000237E-004 5.249999813E-004 5.527660251E-004 5.836039782E-004 6.178540061E-004
 6.558930036E-004 6.981409970E-004 7.450630073E-004 7.971770247E-004 8.550569764E-004
 9.193400037E-004 9.907359490E-004 1.070030034E-003 1.158099971E-003 1.255910029E-003
 1.364539959E-003 1.485200017E-003 1.619199989E-003 1.768029993E-003 1.933319960E-003
 2.116899937E-003 2.320789965E-003 2.547249896E-003 2.798750065E-003 3.078090027E-003
 3.388320096E-003 3.732889891E-003 4.115569871E-003 4.540599883E-003 5.012650043E-003
 5.536930170E-003 6.119209807E-003 6.765920203E-003 7.484170143E-003 8.281899616E-003
 9.167890064E-003 1.015190035E-002 1.124479994E-002 1.245860010E-002 1.380669978E-002
 1.530390047E-002 1.696679927E-002 1.881369948E-002 2.086490020E-002 2.314309962E-002
 2.567330003E-002 2.848350070E-002 3.160449862E-002 3.507089987E-002 3.892080113E-002
 4.319670051E-002 4.794570059E-002 5.322000012E-002 5.907789990E-002 6.558399647E-002
 7.280980051E-002 8.083520085E-002 8.974839747E-002 9.964779764E-002 1.106420010E-001
 1.228540018E-001 1.364160031E-001 1.514780074E-001 1.682080030E-001 1.867879927E-001
 2.074239999E-001 2.303420007E-001 2.557969987E-001 2.840679884E-001 3.154670000E-001
 3.503400087E-001 3.890709877E-001 4.320870042E-001 4.798629880E-001 5.329239964E-001
 5.918560028E-001 6.573089957E-001 7.300029993E-001 8.107399940E-001 9.004089832E-001
 1.000000000E+000
 3.000880127E+002 3.000880127E+002 3.000989990E+002 3.001199951E+002 3.001530151E+002
 3.002040100E+002 3.002799988E+002 3.003919983E+002 3.005539856E+002 3.007890015E+002
 3.011260071E+002 3.016050110E+002 3.022789917E+002 3.032170105E+002 3.045029907E+002
 3.062359924E+002 3.085249939E+002 3.114800110E+002 3.151969910E+002 3.197359924E+002
 3.251059875E+002 3.363880005E+002 4.055289917E+002 4.746040039E+002 5.432329712E+002
 6.110440063E+002 6.776799927E+002 7.428070068E+002 8.061190186E+002 8.673430176E+002
 9.262390137E+002 9.826019897E+002 1.036270020E+003 1.087089966E+003 1.134979980E+003
 1.179859985E+003 1.221660034E+003 1.260359985E+003 1.295930054E+003 1.328369995E+003
 1.357680054E+003 1.383880005E+003 1.406989990E+003 1.427079956E+003 1.444199951E+003
 1.458489990E+003 1.470109985E+003 1.479250000E+003 1.486199951E+003 1.491260010E+003
 1.494760010E+003 1.497050049E+003 1.498449951E+003 1.499250000E+003 1.499670044E+003
 1.499869995E+003 1.499949951E+003 1.499979980E+003 1.500000000E+003 1.500000000E+003
 1.500000000E+003 1.500000000E+003 1.500000000E+003 1.500000000E+003 1.500000000E+003
 1.500000000E+003 1.500000000E+003 1.500000000E+003 1.500000000E+003 1.500000000E+003
 1.500000000E+003 1.500000000E+003 1.500000000E+003 1.500000000E+003 1.500000000E+003
 1.500000000E+003 1.500000000E+003 1.500000000E+003 1.500000000E+003 1.500000000E+003
 1.500000000E+003 1.500000000E+003 1.500000000E+003 1.500000000E+003 1.500000000E+003
 1.500000000E+003 1.500000000E+003 1.500000000E+003 1.500000000E+003 1.500000000E+003
 1.500000000E+003 1.500000000E+003 1.500000000E+003 1.500000000E+003 1.500000000E+003
 1.500000000E+003 1.500000000E+003 1.500000000E+003 1.500000000E+003 1.500000000E+003
 1.500000000E+003
 5.600000024E-001 5.600000024E-001 5.600000024E-001 5.600000024E-001 5.600000024E-001
 5.600000024E-001 5.600000024E-001 5.600000024E-001 5.600000024E-001 5.600000024E-001
 5.600000024E-001 5.600000024E-001 5.600000024E-001 5.600000024E-001 5.600000024E-001
 5.600000024E-001 5.600000024E-001 5.600000024E-001 5.600000024E-001 5.600000024E-001
 5.600000024E-001 5.000000075E-002 5.000000075E-002 5.000000075E-002 5.000000075E-002
 5.000000075E-002 5.000000075E-002 5.000000075E-002 5.000000075E-002 5.000000075E-002
 5.000000075E-002 5.000000075E-002 5.000000075E-002 5.000000075E-002 5.000000075E-002
 5.000000075E-002 5.000000075E-002 5.000000075E-002 5.000000075E-002 5.000000075E-002
 5.000000075E-002 5.000000075E-002 5.000000075E-002 5.000000075E-002 5.000000075E-002
 5.000000075E-002 5.000000075E-002 5.000000075E-002 5.000000075E-002 5.000000075E-002
 5.000000075E-002 5.000000075E-002 5.000000075E-002 5.000000075E-002 5.000000075E-002
 5.000000075E-002 5.000000075E-002 5.000000075E-002 5.000000075E-002 5.000000075E-002
 5.000000075E-002 5.000000075E-002 5.000000075E-002 5.000000075E-002 5.000000075E-002
 5.000000075E-002 5.000000075E-002 5.000000075E-002 5.000000075E-002 5.000000075E-002
 5.000000075E-002 5.000000075E-002 5.000000075E-002 5.000000075E-002 5.000000075E-002
 5.000000075E-002 5.000000075E-002 5.000000075E-002 5.000000075E-002 5.000000075E-002
 5.000000075E-002 5.000000075E-002 5.000000075E-002 5.000000075E-002 5.000000075E-002
 5.000000075E-002 5.000000075E-002 5.000000075E-002 5.000000075E-002 5.000000075E-002
 5.000000075E-002 5.000000075E-002 5.000000075E-002 5.000000075E-002 5.000000075E-002
 5.000000075E-002 5.000000075E-002 5.000000075E-002 5.000000075E-002 5.000000075E-002
 5.000000075E-002
ZONE T="ZONE 001"
 STRANDID=0, SOLUTIONTIME=0
 I=101, J=1, K=1, ZONETYPE=Ordered
 DATAPACKING=BLOCK
 DT=(SINGLE SINGLE SINGLE )
 0.000000000E+000 2.499999937E-005 4.999999874E-005 7.500000356E-005 9.999999747E-005
 1.250000059E-004 1.500000071E-004 1.749999938E-004 1.999999949E-004 2.249999961E-004
 2.500000119E-004 2.749999985E-004 3.000000142E-004 3.250000009E-004 3.499999875E-004
 3.750000033E-004 3.999999899E-004 4.250000056E-004 4.499999923E-004 4.750000080E-004
 5.000000237E-004 5.249999813E-004 5.527660251E-004 5.836039782E-004 6.178540061E-004
 6.558930036E-004 6.981409970E-004 7.450630073E-004 7.971770247E-004 8.550569764E-004
 9.193400037E-004 9.907359490E-004 1.070030034E-003 1.158099971E-003 1.255910029E-003
 1.364539959E-003 1.485200017E-003 1.619199989E-003 1.768029993E-003 1.933319960E-003
 2.116899937E-003 2.320789965E-003 2.547249896E-003 2.798750065E-003 3.078090027E-003
 3.388320096E-003 3.732889891E-003 4.115569871E-003 4.540599883E-003 5.012650043E-003
 5.536930170E-003 6.119209807E-003 6.765920203E-003 7.484170143E-003 8.281899616E-003
 9.167890064E-003 1.015190035E-002 1.124479994E-002 1.245860010E-002 1.380669978E-002
 1.530390047E-002 1.696679927E-002 1.881369948E-002 2.086490020E-002 2.314309962E-002
 2.567330003E-002 2.848350070E-002 3.160449862E-002 3.507089987E-002 3.892080113E-002
 4.319670051E-002 4.794570059E-002 5.322000012E-002 5.907789990E-002 6.558399647E-002
 7.280980051E-002 8.083520085E-002 8.974839747E-002 9.964779764E-002 1.106420010E-001
 1.228540018E-001 1.364160031E-001 1.514780074E-001 1.682080030E-001 1.867879927E-001
 2.074239999E-001 2.303420007E-001 2.557969987E-001 2.840679884E-001 3.154670000E-001
 3.503400087E-001 3.890709877E-001 4.320870042E-001 4.798629880E-001 5.329239964E-001
 5.918560028E-001 6.573089957E-001 7.300029993E-001 8.107399940E-001 9.004089832E-001
 1.000000000E+000
 3.012019958E+002 3.012019958E+002 3.012789917E+002 3.014219971E+002 3.016390076E+002
 3.019419861E+002 3.023469849E+002 3.028779907E+002 3.035599976E+002 3.044249878E+002
 3.055109863E+002 3.068569946E+002 3.085079956E+002 3.105090027E+002 3.129030151E+002
 3.157340088E+002 3.190339966E+002 3.228299866E+002 3.271350098E+002 3.319490051E+002
 3.372579956E+002 3.478619995E+002 4.128439941E+002 4.777650146E+002 5.422700195E+002
 6.060130005E+002 6.686599731E+002 7.299050293E+002 7.894660034E+002 8.470949707E+002
 9.025780029E+002 9.557369995E+002 1.006429993E+003 1.054560059E+003 1.100050049E+003
 1.142849976E+003 1.182959961E+003 1.220369995E+003 1.255130005E+003 1.287260010E+003
 1.316810059E+003 1.343849976E+003 1.368420044E+003 1.390589966E+003 1.410410034E+003
 1.427930054E+003 1.443219971E+003 1.456339966E+003 1.467380005E+003 1.476420044E+003
 1.483609985E+003 1.489119995E+003 1.493150024E+003 1.495949951E+003 1.497770020E+003
 1.498869995E+003 1.499479980E+003 1.499780029E+003 1.499920044E+003 1.499969971E+003
 1.499989990E+003 1.500000000E+003 1.500000000E+003 1.500000000E+003 1.500000000E+003
 1.500000000E+003 1.500000000E+003 1.500000000E+003 1.500000000E+003 1.500000000E+003
 1.500000000E+003 1.500000000E+003 1.500000000E+003 1.500000000E+003 1.500000000E+003
 1.500000000E+003 1.500000000E+003 1.500000000E+003 1.500000000E+003 1.500000000E+003
 1.500000000E+003 1.500000000E+003 1.500000000E+003 1.500000000E+003 1.500000000E+003
 1.500000000E+003 1.500000000E+003 1.500000000E+003 1.500000000E+003 1.500000000E+003
 1.500000000E+003 1.500000000E+003 1.500000000E+003 1.500000000E+003 1.500000000E+003
 1.500000000E+003 1.500000000E+003 1.500000000E+003 1.500000000E+003 1.500000000E+003
 1.500000000E+003
 5.600000024E-001 5.600000024E-001 5.600000024E-001 5.600000024E-001 5.600000024E-001
 5.600000024E-001 5.600000024E-001 5.600000024E-001 5.600000024E-001 5.600000024E-001
 5.600000024E-001 5.600000024E-001 5.600000024E-001 5.600000024E-001 5.600000024E-001
 5.600000024E-001 5.600000024E-001 5.600000024E-001 5.600000024E-001 5.600000024E-001
 5.600000024E-001 5.000000075E-002 5.000000075E-002 5.000000075E-002 5.000000075E-002
 5.000000075E-002 5.000000075E-002 5.000000075E-002 5.000000075E-002 5.000000075E-002
 5.000000075E-002 5.000000075E-002 5.000000075E-002 5.000000075E-002 5.000000075E-002
 5.000000075E-002 5.000000075E-002 5.000000075E-002 5.000000075E-002 5.000000075E-002
 5.000000075E-002 5.000000075E-002 5.000000075E-002 5.000000075E-002 5.000000075E-002
 5.000000075E-002 5.000000075E-002 5.000000075E-002 5.000000075E-002 5.000000075E-002
 5.000000075E-002 5.000000075E-002 5.000000075E-002 5.000000075E-002 5.000000075E-002
 5.000000075E-002 5.000000075E-002 5.000000075E-002 5.000000075E-002 5.000000075E-002
 5.000000075E-002 5.000000075E-002 5.000000075E-002 5.000000075E-002 5.000000075E-002
 5.000000075E-002 5.000000075E-002 5.000000075E-002 5.000000075E-002 5.000000075E-002
 5.000000075E-002 5.000000075E-002 5.000000075E-002 5.000000075E-002 5.000000075E-002
 5.000000075E-002 5.000000075E-002 5.000000075E-002 5.000000075E-002 5.000000075E-002
 5.000000075E-002 5.000000075E-002 5.000000075E-002 5.000000075E-002 5.000000075E-002
 5.000000075E-002 5.000000075E-002 5.000000075E-002 5.000000075E-002 5.000000075E-002
 5.000000075E-002 5.000000075E-002 5.000000075E-002 5.000000075E-002 5.000000075E-002
 5.000000075E-002 5.000000075E-002 5.000000075E-002 5.000000075E-002 5.000000075E-002
 5.000000075E-002
ZONE T="ZONE 001"
 STRANDID=0, SOLUTIONTIME=0
 I=101, J=1, K=1, ZONETYPE=Ordered
 DATAPACKING=BLOCK
 DT=(SINGLE SINGLE SINGLE )
 0.000000000E+000 2.499999937E-005 4.999999874E-005 7.500000356E-005 9.999999747E-005
 1.250000059E-004 1.500000071E-004 1.749999938E-004 1.999999949E-004 2.249999961E-004
 2.500000119E-004 2.749999985E-004 3.000000142E-004 3.250000009E-004 3.499999875E-004
 3.750000033E-004 3.999999899E-004 4.250000056E-004 4.499999923E-004 4.750000080E-004
 5.000000237E-004 5.249999813E-004 5.527660251E-004 5.836039782E-004 6.178540061E-004
 6.558930036E-004 6.981409970E-004 7.450630073E-004 7.971770247E-004 8.550569764E-004
 9.193400037E-004 9.907359490E-004 1.070030034E-003 1.158099971E-003 1.255910029E-003
 1.364539959E-003 1.485200017E-003 1.619199989E-003 1.768029993E-003 1.933319960E-003
 2.116899937E-003 2.320789965E-003 2.547249896E-003 2.798750065E-003 3.078090027E-003
 3.388320096E-003 3.732889891E-003 4.115569871E-003 4.540599883E-003 5.012650043E-003
 5.536930170E-003 6.119209807E-003 6.765920203E-003 7.484170143E-003 8.281899616E-003
 9.167890064E-003 1.015190035E-002 1.124479994E-002 1.245860010E-002 1.380669978E-002
 1.530390047E-002 1.696679927E-002 1.881369948E-002 2.086490020E-002 2.314309962E-002
 2.567330003E-002 2.848350070E-002 3.160449862E-002 3.507089987E-002 3.892080113E-002
 4.319670051E-002 4.794570059E-002 5.322000012E-002 5.907789990E-002 6.558399647E-002
 7.280980051E-002 8.083520085E-002 8.974839747E-002 9.964779764E-002 1.106420010E-001
 1.228540018E-001 1.364160031E-001 1.514780074E-001 1.682080030E-001 1.867879927E-001
 2.074239999E-001 2.303420007E-001 2.557969987E-001 2.840679884E-001 3.154670000E-001
 3.503400087E-001 3.890709877E-001 4.320870042E-001 4.798629880E-001 5.329239964E-001
 5.918560028E-001 6.573089957E-001 7.300029993E-001 8.107399940E-001 9.004089832E-001
 1.000000000E+000
 3.096969910E+002 3.096969910E+002 3.099389954E+002 3.103800049E+002 3.110180054E+002
 3.118599854E+002 3.129140015E+002 3.141929932E+002 3.157099915E+002 3.174790039E+002
 3.195140076E+002 3.218299866E+002 3.244400024E+002 3.273550110E+002 3.305859985E+002
 3.341400146E+002 3.380220032E+002 3.422330017E+002 3.467730103E+002 3.516359863E+002
 3.568150024E+002 3.668840027E+002 4.285859985E+002 4.902319946E+002 5.514829712E+002
 6.120100098E+002 6.715009766E+002 7.296630249E+002 7.862319946E+002 8.409739990E+002
 8.936890259E+002 9.442130127E+002 9.924169922E+002 1.038209961E+003 1.081520020E+003
 1.122339966E+003 1.160640015E+003 1.196459961E+003 1.229839966E+003 1.260829956E+003
 1.289500000E+003 1.315939941E+003 1.340219971E+003 1.362430054E+003 1.382660034E+003
 1.400979980E+003 1.417469971E+003 1.432199951E+003 1.445229980E+003 1.456630005E+003
 1.466449951E+003 1.474760010E+003 1.481630005E+003 1.487140015E+003 1.491410034E+003
 1.494569946E+003 1.496780029E+003 1.498229980E+003 1.499109985E+003 1.499599976E+003
 1.499839966E+003 1.499939941E+003 1.499979980E+003 1.500000000E+003 1.500000000E+003
 1.500000000E+003 1.500000000E+003 1.500000000E+003 1.500000000E+003 1.500000000E+003