TITLE     = "Graphics | Graphics | Graphics | Graphics | Graphics | Graphics | Graphics"
VARIABLES = "i"
"F"
ZONE T="ZONE 001"
 STRANDID=0, SOLUTIONTIME=0
 I=27, J=1, K=1, ZONETYPE=Ordered
 DATAPACKING=BLOCK
 DT=(SINGLE SINGLE )
 0.000000000E+000 1.000000000E+000 2.000000000E+000 3.000000000E+000 4.000000000E+000
 5.000000000E+000 6.000000000E+000 7.000000000E+000 8.000000000E+000 9.000000000E+000
 1.000000000E+001 1.100000000E+001 1.200000000E+001 1.300000000E+001 1.400000000E+001
 1.500000000E+001 1.600000000E+001 1.700000000E+001 1.800000000E+001 1.900000000E+001
 2.000000000E+001 2.100000000E+001 2.200000000E+001 2.300000000E+001 2.400000000E+001
 2.500000000E+001 2.600000000E+001
 2.033550000E+005 2.316040039E+004 1.139110000E+005 2.455180078E+004 1.452040039E+004
 9.247209961E+003 5.659609863E+003 3.567419922E+003 2.242709961E+003 1.425979980E+003
 9.087089844E+002 5.823649902E+002 3.743190002E+002 2.414329987E+002 1.561119995E+002
 1.011829987E+002 6.570899963E+001 4.274580002E+001 2.784869957E+001 1.816699982E+001
 1.186470032E+001 7.756509781E+000 5.075300217E+000 3.323539972E+000 2.177939892E+000
 1.428120017E+000 9.369810224E-001
ZONE T="ZONE 001"
 STRANDID=0, SOLUTIONTIME=0
 I=14, J=1, K=1, ZONETYPE=Ordered
 DATAPACKING=BLOCK
 DT=(SINGLE SINGLE )
 0.000000000E+000 1.000000000E+000 2.000000000E+000 3.000000000E+000 4.000000000E+000
 5.000000000E+000 6.000000000E+000 7.000000000E+000 8.000000000E+000 9.000000000E+000
 1.000000000E+001 1.100000000E+001 1.200000000E+001 1.300000000E+001
 2.198950043E+002 1.447160034E+002 9.420079803E+001 6.181159973E+001 4.058420181E+001
 2.669849968E+001 1.758029938E+001 1.158629990E+001 7.640629768E+000 5.041170120E+000
 3.327369928E+000 2.196870089E+000 1.450829983E+000 9.583299756E-001
ZONE T="ZONE 001"
 STRANDID=0, SOLUTIONTIME=0
 I=13, J=1, K=1, ZONETYPE=Ordered
 DATAPACKING=BLOCK
 DT=(SINGLE SINGLE )
 0.000000000E+000 1.000000000E+000 2.000000000E+000 3.000000000E+000 4.000000000E+000
 5.000000000E+000 6.000000000E+000 7.000000000E+000 8.000000000E+000 9.000000000E+000
 1.000000000E+001 1.100000000E+001 1.200000000E+001
 1.190080032E+002 7.907720184E+001 5.254880142E+001 3.492990112E+001 2.322150040E+001
 1.543939972E+001 1.026599979E+001 6.826499939E+000 4.539529800E+000 3.018800020E+000
 2.007550001E+000 1.335070014E+000 8.878660202E-001
ZONE T="ZONE 001"
 STRANDID=0, SOLUTIONTIME=0
 I=13, J=1, K=1, ZONETYPE=Ordered
 DATAPACKING=BLOCK
 DT=(SINGLE SINGLE )
 0.000000000E+000 1.000000000E+000 2.000000000E+000 3.000000000E+000 4.000000000E+000
 5.000000000E+000 6.000000000E+000 7.000000000E+000 8.000000000E+000 9.000000000E+000
 1.000000000E+001 1.100000000E+001 1.200000000E+001
 1.016699982E+002 6.821250153E+001 4.577439880E+001 3.071739960E+001 2.061400032E+001
 1.383390045E+001 9.283900261E+000 6.230440140E+000 4.181260109E+000 2.806050062E+000
 1.883149981E+000 1.263779998E+000 8.481220007E-001
ZONE T="ZONE 001"
 STRANDID=0, SOLUTIONTIME=0
 I=13, J=1, K=1, ZONETYPE=Ordered
 DATAPACKING=BLOCK
 DT=(SINGLE SINGLE )
 0.000000000E+000 1.000000000E+000 2.000000000E+000 3.000000000E+000 4.000000000E+000
 5.000000000E+000 6.000000000E+000 7.000000000E+000 8.000000000E+000 9.000000000E+000
 1.000000000E+001 1.100000000E+001 1.200000000E+001
 1.001500015E+002 6.772540283E+001 4.580910110E+001 3.098410034E+001 2.095709991E+001
 1.417500019E+001 9.587619781E+000 6.484799862E+000 4.386119843E+000 2.966619968E+000
 2.006500006E+000 1.357110023E+000 9.178850055E-001
ZONE T="ZONE 001"
 STRANDID=0, SOLUTIONTIME=0
 I=13, J=1, K=1, ZONETYPE=Ordered
 DATAPACKING=BLOCK
 DT=(SINGLE SINGLE )
 0.000000000E+000 1.000000000E+000 2.000000000E+000 3.000000000E+000 4.000000000E+000
 5.000000000E+000 6.000000000E+000 7.000000000E+000 8.000000000E+000 9.000000000E+000
 1.000000000E+001 1.100000000E+001 1.200000000E+001
 1.001139984E+002 6.779810333E+001 4.592390060E+001 3.110610008E+001 2.106959915E+001
 1.427130032E+001 9.666529655E+000 6.547480106E+000 4.434800148E+000 3.003809929E+000
 2.034539938E+000 1.378029943E+000 9.333559871E-001
ZONE T="ZONE 001"
 STRANDID=0, SOLUTIONTIME=0
 I=13, J=1, K=1, ZONETYPE=Ordered
 DATAPACKING=BLOCK
 DT=(SINGLE SINGLE )
 0.000000000E+000 1.000000000E+000 2.000000000E+000 3.000000000E+000 4.000000000E+000
 5.000000000E+000 6.000000000E+000 7.000000000E+000 8.000000000E+000 9.000000000E+000
 1.000000000E+001 1.100000000E+001 1.200000000E+001
 1.001159973E+002 6.782520294E+001 4.595999908E+001 3.114249992E+001 2.110239983E+001
 1.429909992E+001 9.689029694E+000 6.565239906E+000 4.448540211E+000 3.014260054E+000
 2.042409897E+000 1.383890033E+000 9.376839995E-001
ZONE T="ZONE 001"
 STRANDID=0, SOLUTIONTIME=0
 I=27, J=1, K=1, ZONETYPE=Ordered
 DATAPACKING=BLOCK
 DT=(SINGLE SINGLE )
 0.000000000E+000 1.000000000E+000 2.000000000E+000 3.000000000E+000 4.000000000E+000
 5.000000000E+000 6.000000000E+000 7.000000000E+000 8.000000000E+000 9.000000000E+000
 1.000000000E+001 1.100000000E+001 1.200000000E+001 1.300000000E+001 1.400000000E+001
 1.500000000E+001 1.600000000E+001 1.700000000E+001 1.800000000E+001 1.900000000E+001
 2.000000000E+001 2.100000000E+001 2.200000000E+001 2.300000000E+001 2.400000000E+001
 2.500000000E+001 2.600000000E+001
 1.166510010E+002 1.960849953E+001 7.995090008E+000 6.910470009E+000 6.325610161E+000
 5.802810192E+000 5.323460102E+000 4.884130001E+000 4.481289864E+000 4.111959934E+000
 3.773269892E+000 3.462690115E+000 3.177839994E+000 2.916589975E+000 2.676939964E+000
 2.457119942E+000 2.255450010E+000 2.070430040E+000 1.900679946E+000 1.744920015E+000
 1.601999998E+000 1.470839977E+000 1.350479960E+000 1.240020037E+000 1.138640046E+000
 1.045580029E+000 9.601680040E-001
ZONE T="ZONE 001"
 STRANDID=0, SOLUTIONTIME=0
 I=13, J=1, K=1, ZONETYPE=Ordered
 DATAPACKING=BLOCK
 DT=(SINGLE SINGLE )
 0.000000000E+000 1.000000000E+000 2.000000000E+000 3.000000000E+000 4.000000000E+000
 5.000000000E+000 6.000000000E+000 7.000000000E+000 8.000000000E+000 9.000000000E+000
 1.000000000E+001 1.100000000E+001 1.200000000E+001
 1.001149979E+002 6.781790161E+001 4.595050049E+001 3.113290024E+001 2.109379959E+001
 1.429179955E+001 9.683150291E+000 6.560599804E+000 4.444950104E+000 3.011529922E+000
 2.040349960E+000 1.382359982E+000 9.365550280E-001
