TITLE     = "Graphics | Graphics | Graphics | Graphics | Graphics | Graphics | Graphics | Graphics | Graphics"
VARIABLES = "rj"
"T"
"Lambda"
ZONE T="ZONE 001"
 STRANDID=0, SOLUTIONTIME=0
 I=101, J=1, K=1, ZONETYPE=Ordered
 DATAPACKING=BLOCK
 DT=(SINGLE SINGLE SINGLE )
 0.000000000E+000 2.499999937E-005 4.999999874E-005 7.500000356E-005 9.999999747E-005
 1.250000059E-004 1.500000071E-004 1.749999938E-004 1.999999949E-004 2.249999961E-004
 2.500000119E-004 2.749999985E-004 3.000000142E-004 3.250000009E-004 3.499999875E-004
 3.750000033E-004 3.999999899E-004 4.250000056E-004 4.499999923E-004 4.750000080E-004
 5.000000237E-004 5.249999813E-004 5.527660251E-004 5.836039782E-004 6.178540061E-004
 6.558930036E-004 6.981409970E-004 7.450630073E-004 7.971770247E-004 8.550569764E-004
 9.193400037E-004 9.907359490E-004 1.070030034E-003 1.158099971E-003 1.255910029E-003
 1.364539959E-003 1.485200017E-003 1.619199989E-003 1.768029993E-003 1.933319960E-003
 2.116899937E-003 2.320789965E-003 2.547249896E-003 2.798750065E-003 3.078090027E-003
 3.388320096E-003 3.732889891E-003 4.115569871E-003 4.540599883E-003 5.012650043E-003
 5.536930170E-003 6.119209807E-003 6.765920203E-003 7.484170143E-003 8.281899616E-003
 9.167890064E-003 1.015190035E-002 1.124479994E-002 1.245860010E-002 1.380669978E-002
 1.530390047E-002 1.696679927E-002 1.881369948E-002 2.086490020E-002 2.314309962E-002
 2.567330003E-002 2.848350070E-002 3.160449862E-002 3.507089987E-002 3.892080113E-002
 4.319670051E-002 4.794570059E-002 5.322000012E-002 5.907789990E-002 6.558399647E-002
 7.280980051E-002 8.083520085E-002 8.974839747E-002 9.964779764E-002 1.106420010E-001
 1.228540018E-001 1.364160031E-001 1.514780074E-001 1.682080030E-001 1.867879927E-001
 2.074239999E-001 2.303420007E-001 2.557969987E-001 2.840679884E-001 3.154670000E-001
 3.503400087E-001 3.890709877E-001 4.320870042E-001 4.798629880E-001 5.329239964E-001
 5.918560028E-001 6.573089957E-001 7.300029993E-001 8.107399940E-001 9.004089832E-001
 1.000000000E+000
 3.000000000E+002 3.000000000E+002 3.000000000E+002 3.000000000E+002 3.000000000E+002
 3.000000000E+002 3.000000000E+002 3.000000000E+002 3.000000000E+002 3.000000000E+002
 3.000000000E+002 3.000000000E+002 3.000000000E+002 3.000000000E+002 3.000000000E+002
 3.000000000E+002 3.000000000E+002 3.000000000E+002 3.000000000E+002 3.000000000E+002
 3.000000000E+002 1.500000000E+003 1.500000000E+003 1.500000000E+003 1.500000000E+003
 1.500000000E+003 1.500000000E+003 1.500000000E+003 1.500000000E+003 1.500000000E+003
 1.500000000E+003 1.500000000E+003 1.500000000E+003 1.500000000E+003 1.500000000E+003
 1.500000000E+003 1.500000000E+003 1.500000000E+003 1.500000000E+003 1.500000000E+003
 1.500000000E+003 1.500000000E+003 1.500000000E+003 1.500000000E+003 1.500000000E+003
 1.500000000E+003 1.500000000E+003 1.500000000E+003 1.500000000E+003 1.500000000E+003
 1.500000000E+003 1.500000000E+003 1.500000000E+003 1.500000000E+003 1.500000000E+003
 1.500000000E+003 1.500000000E+003 1.500000000E+003 1.500000000E+003 1.500000000E+003
 1.500000000E+003 1.500000000E+003 1.500000000E+003 1.500000000E+003 1.500000000E+003
 1.500000000E+003 1.500000000E+003 1.500000000E+003 1.500000000E+003 1.500000000E+003
 1.500000000E+003 1.500000000E+003 1.500000000E+003 1.500000000E+003 1.500000000E+003
 1.500000000E+003 1.500000000E+003 1.500000000E+003 1.500000000E+003 1.500000000E+003
 1.500000000E+003 1.500000000E+003 1.500000000E+003 1.500000000E+003 1.500000000E+003
 1.500000000E+003 1.500000000E+003 1.500000000E+003 1.500000000E+003 1.500000000E+003
 1.500000000E+003 1.500000000E+003 1.500000000E+003 1.500000000E+003 1.500000000E+003
 1.500000000E+003 1.500000000E+003 1.500000000E+003 1.500000000E+003 1.500000000E+003
 1.500000000E+003
 5.600000024E-001 5.600000024E-001 5.600000024E-001 5.600000024E-001 5.600000024E-001
 5.600000024E-001 5.600000024E-001 5.600000024E-001 5.600000024E-001 5.600000024E-001
 5.600000024E-001 5.600000024E-001 5.600000024E-001 5.600000024E-001 5.600000024E-001
 5.600000024E-001 5.600000024E-001 5.600000024E-001 5.600000024E-001 5.600000024E-001
 5.600000024E-001 5.000000075E-002 5.000000075E-002 5.000000075E-002 5.000000075E-002
 5.000000075E-002 5.000000075E-002 5.000000075E-002 5.000000075E-002 5.000000075E-002
 5.000000075E-002 5.000000075E-002 5.000000075E-002 5.000000075E-002 5.000000075E-002
 5.000000075E-002 5.000000075E-002 5.000000075E-002 5.000000075E-002 5.000000075E-002
 5.000000075E-002 5.000000075E-002 5.000000075E-002 5.000000075E-002 5.000000075E-002
 5.000000075E-002 5.000000075E-002 5.000000075E-002 5.000000075E-002 5.000000075E-002
 5.000000075E-002 5.000000075E-002 5.000000075E-002 5.000000075E-002 5.000000075E-002
 5.000000075E-002 5.000000075E-002 5.000000075E-002 5.000000075E-002 5.000000075E-002
 5.000000075E-002 5.000000075E-002 5.000000075E-002 5.000000075E-002 5.000000075E-002
 5.000000075E-002 5.000000075E-002 5.000000075E-002 5.000000075E-002 5.000000075E-002
 5.000000075E-002 5.000000075E-002 5.000000075E-002 5.000000075E-002 5.000000075E-002
 5.000000075E-002 5.000000075E-002 5.000000075E-002 5.000000075E-002 5.000000075E-002
 5.000000075E-002 5.000000075E-002 5.000000075E-002 5.000000075E-002 5.000000075E-002
 5.000000075E-002 5.000000075E-002 5.000000075E-002 5.000000075E-002 5.000000075E-002
 5.000000075E-002 5.000000075E-002 5.000000075E-002 5.000000075E-002 5.000000075E-002
 5.000000075E-002 5.000000075E-002 5.000000075E-002 5.000000075E-002 5.000000075E-002
 5.000000075E-002
ZONE T="ZONE 001"
 STRANDID=0, SOLUTIONTIME=0
 I=101, J=1, K=1, ZONETYPE=Ordered
 DATAPACKING=BLOCK
 DT=(SINGLE SINGLE SINGLE )
 0.000000000E+000 2.499999937E-005 4.999999874E-005 7.500000356E-005 9.999999747E-005
 1.250000059E-004 1.500000071E-004 1.749999938E-004 1.999999949E-004 2.249999961E-004
 2.500000119E-004 2.749999985E-004 3.000000142E-004 3.250000009E-004 3.499999875E-004
 3.750000033E-004 3.999999899E-004 4.250000056E-004 4.499999923E-004 4.750000080E-004
 5.000000237E-004 5.249999813E-004 5.527660251E-004 5.836039782E-004 6.178540061E-004
 6.558930036E-004 6.981409970E-004 7.450630073E-004 7.971770247E-004 8.550569764E-004
 9.193400037E-004 9.907359490E-004 1.070030034E-003 1.158099971E-003 1.255910029E-003
 1.364539959E-003 1.485200017E-003 1.619199989E-003 1.768029993E-003 1.933319960E-003
 2.116899937E-003 2.320789965E-003 2.547249896E-003 2.798750065E-003 3.078090027E-003
 3.388320096E-003 3.732889891E-003 4.115569871E-003 4.540599883E-003 5.012650043E-003
 5.536930170E-003 6.119209807E-003 6.765920203E-003 7.484170143E-003 8.281899616E-003
 9.167890064E-003 1.015190035E-002 1.124479994E-002 1.245860010E-002 1.380669978E-002
 1.530390047E-002 1.696679927E-002 1.881369948E-002 2.086490020E-002 2.314309962E-002
 2.567330003E-002 2.848350070E-002 3.160449862E-002 3.507089987E-002 3.892080113E-002
 4.319670051E-002 4.794570059E-002 5.322000012E-002 5.907789990E-002 6.558399647E-002
 7.280980051E-002 8.083520085E-002 8.974839747E-002 9.964779764E-002 1.106420010E-001
 1.228540018E-001 1.364160031E-001 1.514780074E-001 1.682080030E-001 1.867879927E-001
 2.074239999E-001 2.303420007E-001 2.557969987E-001 2.840679884E-001 3.154670000E-001
 3.503400087E-001 3.890709877E-001 4.320870042E-001 4.798629880E-001 5.329239964E-001
 5.918560028E-001 6.573089957E-001 7.300029993E-001 8.107399940E-001 9.004089832E-001
 1.000000000E+000
 3.000029907E+002 3.000029907E+002 3.000039978E+002 3.000039978E+002 3.000060120E+002
 3.000079956E+002 3.000119934E+002 3.000180054E+002 3.000289917E+002 3.000469971E+002
 3.000769958E+002 3.001289978E+002 3.002200012E+002 3.003800049E+002 3.006610107E+002
 3.011610107E+002 3.020559998E+002 3.036669922E+002 3.065820007E+002 3.118819885E+002
 3.215620117E+002 3.541499939E+002 5.334349976E+002 6.931740112E+002 8.337440186E+002
 9.559010010E+002 1.060709961E+003 1.149500000E+003 1.223719971E+003 1.284959961E+003
 1.334810059E+003 1.374839966E+003 1.406520020E+003 1.431229980E+003 1.450219971E+003
 1.464589966E+003 1.475260010E+003 1.483060059E+003 1.488650024E+003 1.492569946E+003
 1.495260010E+003 1.497060059E+003 1.498229980E+003 1.498969971E+003 1.499420044E+003
 1.499689941E+003 1.499839966E+003 1.499920044E+003 1.499959961E+003 1.499979980E+003
 1.499989990E+003 1.500000000E+003 1.500000000E+003 1.500000000E+003 1.500000000E+003
 1.500000000E+003 1.500000000E+003 1.500000000E+003 1.500000000E+003 1.500000000E+003
 1.500000000E+003 1.500000000E+003 1.500000000E+003 1.500000000E+003 1.500000000E+003
 1.500000000E+003 1.500000000E+003 1.500000000E+003 1.500000000E+003 1.500000000E+003
 1.500000000E+003 1.500000000E+003 1.500000000E+003 1.500000000E+003 1.500000000E+003
 1.500000000E+003 1.500000000E+003 1.500000000E+003 1.500000000E+003 1.500000000E+003
 1.500000000E+003 1.500000000E+003 1.500000000E+003 1.500000000E+003 1.500000000E+003
 1.500000000E+003 1.500000000E+003 1.500000000E+003 1.500000000E+003 1.500000000E+003
 1.500000000E+003 1.500000000E+003 1.500000000E+003 1.500000000E+003 1.500000000E+003
 1.500000000E+003 1.500000000E+003 1.500000000E+003 1.500000000E+003 1.500000000E+003
 1.500000000E+003
 5.600000024E-001 5.600000024E-001 5.600000024E-001 5.600000024E-001 5.600000024E-001
 5.600000024E-001 5.600000024E-001 5.600000024E-001 5.600000024E-001 5.600000024E-001
 5.600000024E-001 5.600000024E-001 5.600000024E-001 5.600000024E-001 5.600000024E-001
 5.600000024E-001 5.600000024E-001 5.600000024E-001 5.600000024E-001 5.600000024E-001
 5.600000024E-001 5.000000075E-002 5.000000075E-002 5.000000075E-002 5.000000075E-002
 5.000000075E-002 5.000000075E-002 5.000000075E-002 5.000000075E-002 5.000000075E-002
 5.000000075E-002 5.000000075E-002 5.000000075E-002 5.000000075E-002 5.000000075E-002
 5.000000075E-002 5.000000075E-002 5.000000075E-002 5.000000075E-002 5.000000075E-002
 5.000000075E-002 5.000000075E-002 5.000000075E-002 5.000000075E-002 5.000000075E-002
 5.000000075E-002 5.000000075E-002 5.000000075E-002 5.000000075E-002 5.000000075E-002
 5.000000075E-002 5.000000075E-002 5.000000075E-002 5.000000075E-002 5.000000075E-002
 5.000000075E-002 5.000000075E-002 5.000000075E-002 5.000000075E-002 5.000000075E-002
 5.000000075E-002 5.000000075E-002 5.000000075E-002 5.000000075E-002 5.000000075E-002
 5.000000075E-002 5.000000075E-002 5.000000075E-002 5.000000075E-002 5.000000075E-002
 5.000000075E-002 5.000000075E-002 5.000000075E-002 5.000000075E-002 5.000000075E-002
 5.000000075E-002 5.000000075E-002 5.000000075E-002 5.000000075E-002 5.000000075E-002
 5.000000075E-002 5.000000075E-002 5.000000075E-002 5.000000075E-002 5.000000075E-002
 5.000000075E-002 5.000000075E-002 5.000000075E-002 5.000000075E-002 5.000000075E-002
 5.000000075E-002 5.000000075E-002 5.000000075E-002 5.000000075E-002 5.000000075E-002
 5.000000075E-002 5.000000075E-002 5.000000075E-002 5.000000075E-002 5.000000075E-002
 5.000000075E-002
ZONE T="ZONE 001"
 STRANDID=0, SOLUTIONTIME=0
 I=101, J=1, K=1, ZONETYPE=Ordered
 DATAPACKING=BLOCK
 DT=(SINGLE SINGLE SINGLE )
 0.000000000E+000 2.499999937E-005 4.999999874E-005 7.500000356E-005 9.999999747E-005
 1.250000059E-004 1.500000071E-004 1.749999938E-004 1.999999949E-004 2.249999961E-004
 2.500000119E-004 2.749999985E-004 3.000000142E-004 3.250000009E-004 3.499999875E-004
 3.750000033E-004 3.999999899E-004 4.250000056E-004 4.499999923E-004 4.750000080E-004
 5.000000237E-004 5.249999813E-004 5.527660251E-004 5.836039782E-004 6.178540061E-004
 6.558930036E-004 6.981409970E-004 7.450630073E-004 7.971770247E-004 8.550569764E-004
 9.193400037E-004 9.907359490E-004 1.070030034E-003 1.158099971E-003 1.255910029E-003
 1.364539959E-003 1.485200017E-003 1.619199989E-003 1.768029993E-003 1.933319960E-003
 2.116899937E-003 2.320789965E-003 2.547249896E-003 2.798750065E-003 3.078090027E-003
 3.388320096E-003 3.732889891E-003 4.115569871E-003 4.540599883E-003 5.012650043E-003
 5.536930170E-003 6.119209807E-003 6.765920203E-003 7.484170143E-003 8.281899616E-003
 9.167890064E-003 1.015190035E-002 1.124479994E-002 1.245860010E-002 1.380669978E-002
 1.530390047E-002 1.696679927E-002 1.881369948E-002 2.086490020E-002 2.314309962E-002
 2.567330003E-002 2.848350070E-002 3.160449862E-002 3.507089987E-002 3.892080113E-002
 4.319670051E-002 4.794570059E-002 5.322000012E-002 5.907789990E-002 6.558399647E-002
 7.280980051E-002 8.083520085E-002 8.974839747E-002 9.964779764E-002 1.106420010E-001
 1.228540018E-001 1.364160031E-001 1.514780074E-001 1.682080030E-001 1.867879927E-001
 2.074239999E-001 2.303420007E-001 2.557969987E-001 2.840679884E-001 3.154670000E-001
 3.503400087E-001 3.890709877E-001 4.320870042E-001 4.798629880E-001 5.329239964E-001
 5.918560028E-001 6.573089957E-001 7.300029993E-001 8.107399940E-001 9.004089832E-001
 1.000000000E+000
 3.000299988E+002 3.000299988E+002 3.000329895E+002 3.000390015E+002 3.000490112E+002
 3.000650024E+002 3.000910034E+002 3.001310120E+002 3.001929932E+002 3.002909851E+002
 3.004450073E+002 3.006889954E+002 3.010759888E+002 3.016900024E+002 3.026650085E+002
 3.042030029E+002 3.066159973E+002 3.103590088E+002 3.160679932E+002 3.245599976E+002
 3.367040100E+002 3.665539856E+002 5.320109863E+002 6.806970215E+002 8.128339844E+002
 9.289650269E+002 1.029900024E+003 1.116680054E+003 1.190459961E+003 1.252520020E+003
 1.304170044E+003 1.346680054E+003 1.381290039E+003 1.409170044E+003 1.431369995E+003
 1.448839966E+003 1.462420044E+003 1.472839966E+003 1.480709961E+003 1.486569946E+003
 1.490839966E+003 1.493910034E+003 1.496060059E+003 1.497520020E+003 1.498500000E+003
 1.499119995E+003 1.499510010E+003 1.499739990E+003 1.499869995E+003 1.499939941E+003
 1.499969971E+003 1.499989990E+003 1.500000000E+003 1.500000000E+003 1.500000000E+003
 1.500000000E+003 1.500000000E+003 1.500000000E+003 1.500000000E+003 1.500000000E+003
 1.500000000E+003 1.500000000E+003 1.500000000E+003 1.500000000E+003 1.500000000E+003
 1.500000000E+003 1.500000000E+003 1.500000000E+003 1.500000000E+003 1.500000000E+003
 1.500000000E+003 1.500000000E+003 1.500000000E+003 1.500000000E+003 1.500000000E+003
 1.500000000E+003 1.500000000E+003 1.500000000E+003 1.500000000E+003 1.500000000E+003
 1.500000000E+003 1.500000000E+003 1.500000000E+003 1.500000000E+003 1.500000000E+003
 1.500000000E+003 1.500000000E+003 1.500000000E+003 1.500000000E+003 1.500000000E+003
 1.500000000E+003 1.500000000E+003 1.500000000E+003 1.500000000E+003 1.500000000E+003
 1.500000000E+003 1.500000000E+003 1.500000000E+003 1.500000000E+003 1.500000000E+003
 1.500000000E+003
 5.600000024E-001 5.600000024E-001 5.600000024E-001 5.600000024E-001 5.600000024E-001
 5.600000024E-001 5.600000024E-001 5.600000024E-001 5.600000024E-001 5.600000024E-001
 5.600000024E-001 5.600000024E-001 5.600000024E-001 5.600000024E-001 5.600000024E-001
 5.600000024E-001 5.600000024E-001 5.600000024E-001 5.600000024E-001 5.600000024E-001
 5.600000024E-001 5.000000075E-002 5.000000075E-002 5.000000075E-002 5.000000075E-002
 5.000000075E-002 5.000000075E-002 5.000000075E-002 5.000000075E-002 5.000000075E-002
 5.000000075E-002 5.000000075E-002 5.000000075E-002 5.000000075E-002 5.000000075E-002
 5.000000075E-002 5.000000075E-002 5.000000075E-002 5.000000075E-002 5.000000075E-002
 5.000000075E-002 5.000000075E-002 5.000000075E-002 5.000000075E-002 5.000000075E-002
 5.000000075E-002 5.000000075E-002 5.000000075E-002 5.000000075E-002 5.000000075E-002
 5.000000075E-002 5.000000075E-002 5.000000075E-002 5.000000075E-002 5.000000075E-002
 5.000000075E-002 5.000000075E-002 5.000000075E-002 5.000000075E-002 5.000000075E-002
 5.000000075E-002 5.000000075E-002 5.000000075E-002 5.000000075E-002 5.000000075E-002
 5.000000075E-002 5.000000075E-002 5.000000075E-002 5.000000075E-002 5.000000075E-002
 5.000000075E-002 5.000000075E-002 5.000000075E-002 5.000000075E-002 5.000000075E-002
 5.000000075E-002 5.000000075E-002 5.000000075E-002 5.000000075E-002 5.000000075E-002
 5.000000075E-002 5.000000075E-002 5.000000075E-002 5.000000075E-002 5.000000075E-002
 5.000000075E-002 5.000000075E-002 5.000000075E-002 5.000000075E-002 5.000000075E-002
 5.000000075E-002 5.000000075E-002 5.000000075E-002 5.000000075E-002 5.000000075E-002
 5.000000075E-002 5.000000075E-002 5.000000075E-002 5.000000075E-002 5.000000075E-002
 5.000000075E-002
ZONE T="ZONE 001"
 STRANDID=0, SOLUTIONTIME=0
 I=101, J=1, K=1, ZONETYPE=Ordered
 DATAPACKING=BLOCK
 DT=(SINGLE SINGLE SINGLE )
 0.000000000E+000 2.499999937E-005 4.999999874E-005 7.500000356E-005 9.999999747E-005
 1.250000059E-004 1.500000071E-004 1.749999938E-004 1.999999949E-004 2.249999961E-004
 2.500000119E-004 2.749999985E-004 3.000000142E-004 3.250000009E-004 3.499999875E-004
 3.750000033E-004 3.999999899E-004 4.250000056E-004 4.499999923E-004 4.750000080E-004
 5.000000237E-004 5.249999813E-004 5.527660251E-004 5.836039782E-004 6.178540061E-004
 6.558930036E-004 6.981409970E-004 7.450630073E-004 7.971770247E-004 8.550569764E-004
 9.193400037E-004 9.907359490E-004 1.070030034E-003 1.158099971E-003 1.255910029E-003
 1.364539959E-003 1.485200017E-003 1.619199989E-003 1.768029993E-003 1.933319960E-003
 2.116899937E-003 2.320789965E-003 2.547249896E-003 2.798750065E-003 3.078090027E-003
 3.388320096E-003 3.732889891E-003 4.115569871E-003 4.540599883E-003 5.012650043E-003
 5.536930170E-003 6.119209807E-003 6.765920203E-003 7.484170143E-003 8.281899616E-003
 9.167890064E-003 1.015190035E-002 1.124479994E-002 1.245860010E-002 1.380669978E-002
 1.530390047E-002 1.696679927E-002 1.881369948E-002 2.086490020E-002 2.314309962E-002
 2.567330003E-002 2.848350070E-002 3.160449862E-002 3.507089987E-002 3.892080113E-002
 4.319670051E-002 4.794570059E-002 5.322000012E-002 5.907789990E-002 6.558399647E-002
 7.280980051E-002 8.083520085E-002 8.974839747E-002 9.964779764E-002 1.106420010E-001
 1.228540018E-001 1.364160031E-001 1.514780074E-001 1.682080030E-001 1.867879927E-001
 2.074239999E-001 2.303420007E-001 2.557969987E-001 2.840679884E-001 3.154670000E-001
 3.503400087E-001 3.890709877E-001 4.320870042E-001 4.798629880E-001 5.329239964E-001
 5.918560028E-001 6.573089957E-001 7.300029993E-001 8.107399940E-001 9.004089832E-001
 1.000000000E+000
 3.008450012E+002 3.008450012E+002 3.008880005E+002 3.009890137E+002 3.011520081E+002
 3.013919983E+002 3.017340088E+002 3.022099915E+002 3.028670044E+002 3.037650146E+002
 3.049890137E+002 3.066430054E+002 3.088640137E+002 3.118160095E+002 3.156990051E+002
 3.207359924E+002 3.271659851E+002 3.352210083E+002 3.450939941E+002 3.569020081E+002
 3.706470032E+002 3.991969910E+002 5.574459839E+002 6.996669922E+002 8.260889893E+002
 9.372459717E+002 1.033930054E+003 1.117150024E+003 1.188030029E+003 1.247800049E+003
 1.297709961E+003 1.338989990E+003 1.372829956E+003 1.400329956E+003 1.422489990E+003
 1.440209961E+003 1.454260010E+003 1.465319946E+003 1.473959961E+003 1.480650024E+003
 1.485800049E+003 1.489719971E+003 1.492680054E+003 1.494880005E+003 1.496500000E+003
 1.497660034E+003 1.498489990E+003 1.499050049E+003 1.499430054E+003 1.499670044E+003
 1.499819946E+003 1.499910034E+003 1.499959961E+003 1.499979980E+003 1.499989990E+003
 1.500000000E+003 1.500000000E+003 1.500000000E+003 1.500000000E+003 1.500000000E+003
 1.500000000E+003 1.500000000E+003 1.500000000E+003 1.500000000E+003 1.500000000E+003
 1.500000000E+003 1.500000000E+003 1.500000000E+003 1.500000000E+003 1.500000000E+003
 1.500000000E+003 1.500000000E+003 1.500000000E+003 1.500000000E+003 1.500000000E+003
 1.500000000E+003 1.500000000E+003 1.500000000E+003 1.500000000E+003 1.500000000E+003
 1.500000000E+003 1.500000000E+003 1.500000000E+003 1.500000000E+003 1.500000000E+003
 1.500000000E+003 1.500000000E+003 1.500000000E+003 1.500000000E+003 1.500000000E+003
 1.500000000E+003 1.500000000E+003 1.500000000E+003 1.500000000E+003 1.500000000E+003
 1.500000000E+003 1.500000000E+003 1.500000000E+003 1.500000000E+003 1.500000000E+003
 1.500000000E+003
 5.600000024E-001 5.600000024E-001 5.600000024E-001 5.600000024E-001 5.600000024E-001
 5.600000024E-001 5.600000024E-001 5.600000024E-001 5.600000024E-001 5.600000024E-001
 5.600000024E-001 5.600000024E-001 5.600000024E-001 5.600000024E-001 5.600000024E-001
 5.600000024E-001 5.600000024E-001 5.600000024E-001 5.600000024E-001 5.600000024E-001
 5.600000024E-001 5.000000075E-002 5.000000075E-002 5.000000075E-002 5.000000075E-002
 5.000000075E-002 5.000000075E-002 5.000000075E-002 5.000000075E-002 5.000000075E-002
 5.000000075E-002 5.000000075E-002 5.000000075E-002 5.000000075E-002 5.000000075E-002
 5.000000075E-002 5.000000075E-002 5.000000075E-002 5.000000075E-002 5.000000075E-002
 5.000000075E-002 5.000000075E-002 5.000000075E-002 5.000000075E-002 5.000000075E-002
 5.000000075E-002 5.000000075E-002 5.000000075E-002 5.000000075E-002 5.000000075E-002
 5.000000075E-002 5.000000075E-002 5.000000075E-002 5.000000075E-002 5.000000075E-002
 5.000000075E-002 5.000000075E-002 5.000000075E-002 5.000000075E-002 5.000000075E-002
 5.000000075E-002 5.000000075E-002 5.000000075E-002 5.000000075E-002 5.000000075E-002
 5.000000075E-002 5.000000075E-002 5.000000075E-002 5.000000075E-002 5.000000075E-002
 5.000000075E-002 5.000000075E-002 5.000000075E-002 5.000000075E-002 5.000000075E-002
 5.000000075E-002 5.000000075E-002 5.000000075E-002 5.000000075E-002 5.000000075E-002
 5.000000075E-002 5.000000075E-002 5.000000075E-002 5.000000075E-002 5.000000075E-002
 5.000000075E-002 5.000000075E-002 5.000000075E-002 5.000000075E-002 5.000000075E-002
 5.000000075E-002 5.000000075E-002 5.000000075E-002 5.000000075E-002 5.000000075E-002
 5.000000075E-002 5.000000075E-002 5.000000075E-002 5.000000075E-002 5.000000075E-002
 5.000000075E-002
ZONE T="ZONE 001"
 STRANDID=0, SOLUTIONTIME=0
 I=101, J=1, K=1, ZONETYPE=Ordered
 DATAPACKING=BLOCK
 DT=(SINGLE SINGLE SINGLE )
 0.000000000E+000 2.499999937E-005 4.999999874E-005 7.500000356E-005 9.999999747E-005
 1.250000059E-004 1.500000071E-004 1.749999938E-004 1.999999949E-004 2.249999961E-004
 2.500000119E-004 2.749999985E-004 3.000000142E-004 3.250000009E-004 3.499999875E-004
 3.750000033E-004 3.999999899E-004 4.250000056E-004 4.499999923E-004 4.750000080E-004
 5.000000237E-004 5.249999813E-004 5.527660251E-004 5.836039782E-004 6.178540061E-004
 6.558930036E-004 6.981409970E-004 7.450630073E-004 7.971770247E-004 8.550569764E-004
 9.193400037E-004 9.907359490E-004 1.070030034E-003 1.158099971E-003 1.255910029E-003
 1.364539959E-003 1.485200017E-003 1.619199989E-003 1.768029993E-003 1.933319960E-003
 2.116899937E-003 2.320789965E-003 2.547249896E-003 2.798750065E-003 3.078090027E-003
 3.388320096E-003 3.732889891E-003 4.115569871E-003 4.540599883E-003 5.012650043E-003
 5.536930170E-003 6.119209807E-003 6.765920203E-003 7.484170143E-003 8.281899616E-003
 9.167890064E-003 1.015190035E-002 1.124479994E-002 1.245860010E-002 1.380669978E-002
 1.530390047E-002 1.696679927E-002 1.881369948E-002 2.086490020E-002 2.314309962E-002
 2.567330003E-002 2.848350070E-002 3.160449862E-002 3.507089987E-002 3.892080113E-002
 4.319670051E-002 4.794570059E-002 5.322000012E-002 5.907789990E-002 6.558399647E-002
 7.280980051E-002 8.083520085E-002 8.974839747E-002 9.964779764E-002 1.106420010E-001
 1.228540018E-001 1.364160031E-001 1.514780074E-001 1.682080030E-001 1.867879927E-001
 2.074239999E-001 2.303420007E-001 2.557969987E-001 2.840679884E-001 3.154670000E-001
 3.503400087E-001 3.890709877E-001 4.320870042E-001 4.798629880E-001 5.329239964E-001
 5.918560028E-001 6.573089957E-001 7.300029993E-001 8.107399940E-001 9.004089832E-001
 1.000000000E+000
 3.095440063E+002 3.095440063E+002 3.097919922E+002 3.103479919E+002 3.112080078E+002
 3.123919983E+002 3.139360046E+002 3.158850098E+002 3.182909851E+002 3.212090149E+002
 3.246979980E+002 3.288089905E+002 3.335809937E+002 3.390310059E+002 3.451400146E+002
 3.518410034E+002 3.590039978E+002 3.664209900E+002 3.730000000E+002 3.730000000E+002
 3.730000000E+002 4.180079956E+002 5.733319702E+002 7.129149780E+002 8.369810181E+002
 9.460579834E+002 1.040930054E+003 1.122569946E+003 1.192099976E+003 1.250729980E+003
 1.299670044E+003 1.340160034E+003 1.373349976E+003 1.400319946E+003 1.422060059E+003
 1.439449951E+003 1.453260010E+003 1.464140015E+003 1.472670044E+003 1.479310059E+003
 1.484439941E+003 1.488390015E+003 1.491420044E+003 1.493709961E+003 1.495449951E+003
 1.496750000E+003 1.497719971E+003 1.498430054E+003 1.498939941E+003 1.499310059E+003
 1.499569946E+003 1.499739990E+003 1.499849976E+003 1.499920044E+003 1.499959961E+003
 1.499979980E+003 1.499989990E+003 1.500000000E+003 1.500000000E+003 1.500000000E+003
 1.500000000E+003 1.500000000E+003 1.500000000E+003 1.500000000E+003 1.500000000E+003
 1.500000000E+003 1.500000000E+003 1.500000000E+003 1.500000000E+003 1.500000000E+003
 1.500000000E+003 1.500000000E+003 1.500000000E+003 1.500000000E+003 1.500000000E+003
 1.500000000E+003 1.500000000E+003 1.500000000E+003 1.500000000E+003 1.500000000E+003
 1.500000000E+003 1.500000000E+003 1.500000000E+003 1.500000000E+003 1.500000000E+003
 1.500000000E+003 1.500000000E+003 1.500000000E+003 1.500000000E+003 1.500000000E+003
 1.500000000E+003 1.500000000E+003 1.500000000E+003 1.500000000E+003 1.500000000E+003
 1.500000000E+003 1.500000000E+003 1.500000000E+003 1.500000000E+003 1.500000000E+003
 1.500000000E+003
 5.600000024E-001 5.600000024E-001 5.600000024E-001 5.600000024E-001 5.600000024E-001
 5.600000024E-001 5.600000024E-001 5.600000024E-001 5.600000024E-001 5.600000024E-001
 5.600000024E-001 5.600000024E-001 5.600000024E-001 5.600000024E-001 5.600000024E-001
 5.600000024E-001 5.600000024E-001 5.600000024E-001 5.600000024E-001 5.600000024E-001
 5.600000024E-001 5.000000075E-002 5.000000075E-002 5.000000075E-002 5.000000075E-002
 5.000000075E-002 5.000000075E-002 5.000000075E-002 5.000000075E-002 5.000000075E-002
 5.000000075E-002 5.000000075E-002 5.000000075E-002 5.000000075E-002 5.000000075E-002
 5.000000075E-002 5.000000075E-002 5.000000075E-002 5.000000075E-002 5.000000075E-002
 5.000000075E-002 5.000000075E-002 5.000000075E-002 5.000000075E-002 5.000000075E-002
 5.000000075E-002 5.000000075E-002 5.000000075E-002 5.000000075E-002 5.000000075E-002
 5.000000075E-002 5.000000075E-002 5.000000075E-002 5.000000075E-002 5.000000075E-002
 5.000000075E-002 5.000000075E-002 5.000000075E-002 5.000000075E-002 5.000000075E-002
 5.000000075E-002 5.000000075E-002 5.000000075E-002 5.000000075E-002 5.000000075E-002
 5.000000075E-002 5.000000075E-002 5.000000075E-002 5.000000075E-002 5.000000075E-002
 5.000000075E-002 5.000000075E-002 5.000000075E-002 5.000000075E-002 5.000000075E-002
 5.000000075E-002 5.000000075E-002 5.000000075E-002 5.000000075E-002 5.000000075E-002
 5.000000075E-002 5.000000075E-002 5.000000075E-002 5.000000075E-002 5.000000075E-002
 5.000000075E-002 5.000000075E-002 5.000000075E-002 5.000000075E-002 5.000000075E-002
 5.000000075E-002 5.000000075E-002 5.000000075E-002 5.000000075E-002 5.000000075E-002
 5.000000075E-002 5.000000075E-002 5.000000075E-002 5.000000075E-002 5.000000075E-002
 5.000000075E-002
ZONE T="ZONE 001"
 STRANDID=0, SOLUTIONTIME=0
 I=101, J=1, K=1, ZONETYPE=Ordered
 DATAPACKING=BLOCK
 DT=(SINGLE SINGLE SINGLE )
 0.000000000E+000 2.499999937E-005 4.999999874E-005 7.500000356E-005 9.999999747E-005
 1.250000059E-004 1.500000071E-004 1.749999938E-004 1.999999949E-004 2.249999961E-004
 2.500000119E-004 2.749999985E-004 3.000000142E-004 3.250000009E-004 3.499999875E-004
 3.750000033E-004 3.999999899E-004 4.250000056E-004 4.499999923E-004 4.750000080E-004
 5.000000237E-004 5.249999813E-004 5.527660251E-004 5.836039782E-004 6.178540061E-004
 6.558930036E-004 6.981409970E-004 7.450630073E-004 7.971770247E-004 8.550569764E-004
 9.193400037E-004 9.907359490E-004 1.070030034E-003 1.158099971E-003 1.255910029E-003
 1.364539959E-003 1.485200017E-003 1.619199989E-003 1.768029993E-003 1.933319960E-003
 2.116899937E-003 2.320789965E-003 2.547249896E-003 2.798750065E-003 3.078090027E-003
 3.388320096E-003 3.732889891E-003 4.115569871E-003 4.540599883E-003 5.012650043E-003
 5.536930170E-003 6.119209807E-003 6.765920203E-003 7.484170143E-003 8.281899616E-003
 9.167890064E-003 1.015190035E-002 1.124479994E-002 1.245860010E-002 1.380669978E-002
 1.530390047E-002 1.696679927E-002 1.881369948E-002 2.086490020E-002 2.314309962E-002
 2.567330003E-002 2.848350070E-002 3.160449862E-002 3.507089987E-002 3.892080113E-002
 4.319670051E-002 4.794570059E-002 5.322000012E-002 5.907789990E-002 6.558399647E-002
 7.280980051E-002 8.083520085E-002 8.974839747E-002 9.964779764E-002 1.106420010E-001
 1.228540018E-001 1.364160031E-001 1.514780074E-001 1.682080030E-001 1.867879927E-001
 2.074239999E-001 2.303420007E-001 2.557969987E-001 2.840679884E-001 3.154670000E-001
 3.503400087E-001 3.890709877E-001 4.320870042E-001 4.798629880E-001 5.329239964E-001
 5.918560028E-001 6.573089957E-001 7.300029993E-001 8.107399940E-001 9.004089832E-001
 1.000000000E+000
 3.472680054E+002 3.472680054E+002 3.475780029E+002 3.482569885E+002 3.492640076E+002
 3.505710144E+002 3.521520081E+002 3.539769897E+002 3.560119934E+002 3.582170105E+002
 3.605450134E+002 3.629450073E+002 3.653590088E+002 3.677279968E+002 3.699869995E+002
 3.720729980E+002 3.730000000E+002 3.730000000E+002 3.730000000E+002 3.730000000E+002
 3.730000000E+002 4.194270020E+002 5.744669800E+002 7.137940063E+002 8.376320190E+002
 9.465070190E+002 1.041199951E+003 1.122689941E+003 1.192089966E+003 1.250599976E+003
 1.299459961E+003 1.339869995E+003 1.373000000E+003 1.399920044E+003 1.421619995E+003
 1.438969971E+003 1.452750000E+003 1.463619995E+003 1.472140015E+003 1.478770020E+003
 1.483910034E+003 1.487869995E+003 1.490900024E+003 1.493209961E+003 1.494969971E+003
 1.496300049E+003 1.497300049E+003 1.498050049E+003 1.498609985E+003 1.499020020E+003
 1.499319946E+003 1.499540039E+003 1.499699951E+003 1.499810059E+003 1.499880005E+003
 1.499930054E+003 1.499959961E+003 1.499979980E+003 1.499989990E+003 1.500000000E+003
 1.500000000E+003 1.500000000E+003 1.500000000E+003 1.500000000E+003 1.500000000E+003
 1.500000000E+003 1.500000000E+003 1.500000000E+003 1.500000000E+003 1.500000000E+003