TITLE     = "Graphics"
VARIABLES = "i"
"F"
ZONE T="ZONE 001"
 STRANDID=0, SOLUTIONTIME=0
 I=16, J=1, K=1, ZONETYPE=Ordered
 DATAPACKING=BLOCK
 DT=(SINGLE SINGLE )
 1.000000000E+000 2.000000000E+000 3.000000000E+000 4.000000000E+000 5.000000000E+000
 6.000000000E+000 7.000000000E+000 8.000000000E+000 9.000000000E+000 1.000000000E+001
 1.100000000E+001 1.200000000E+001 1.300000000E+001 1.400000000E+001 1.500000000E+001
 1.600000000E+001
 6.345420000E+007 2.537550000E+007 7.982840000E+006 1.406450000E+006 6.133639844E+004
 1.313789978E+002 4.750370085E-001 1.696670055E-001 2.951640077E-002 3.194079967E-003
 1.484400011E-003 3.235620097E-004 3.312480112E-005 1.554089977E-005 3.662439894E-006
 3.702629954E-007
ZONE T="ZONE 001"
 STRANDID=0, SOLUTIONTIME=0
 I=16, J=1, K=1, ZONETYPE=Ordered
 DATAPACKING=BLOCK
 DT=(SINGLE SINGLE )
 1.000000000E+000 2.000000000E+000 3.000000000E+000 4.000000000E+000 5.000000000E+000
 6.000000000E+000 7.000000000E+000 8.000000000E+000 9.000000000E+000 1.000000000E+001
 1.100000000E+001 1.200000000E+001 1.300000000E+001 1.400000000E+001 1.500000000E+001
 1.600000000E+001
 1.492360000E+008 5.968840000E+007 1.878370000E+007 3.312010000E+006 1.445960000E+005
 2.948840027E+002 6.224550009E-001 2.275619954E-001 4.186850041E-002 4.687429871E-003
 2.008900046E-003 4.599269887E-004 5.035419963E-005 2.116040014E-005 5.247939953E-006
 5.771449878E-007
ZONE T="ZONE 001"
 STRANDID=0, SOLUTIONTIME=0
 I=16, J=1, K=1, ZONETYPE=Ordered
 DATAPACKING=BLOCK
 DT=(SINGLE SINGLE )
 1.000000000E+000 2.000000000E+000 3.000000000E+000 4.000000000E+000 5.000000000E+000
 6.000000000E+000 7.000000000E+000 8.000000000E+000 9.000000000E+000 1.000000000E+001
 1.100000000E+001 1.200000000E+001 1.300000000E+001 1.400000000E+001 1.500000000E+001
 1.600000000E+001
 2.359929920E+008 9.438500000E+007 2.970100000E+007 5.236270000E+006 2.284700000E+005
 4.577590027E+002 8.376259804E-001 2.975339890E-001 5.809490010E-002 6.857119966E-003
 2.646160079E-003 6.331690238E-004 7.511329750E-005 2.785869947E-005 7.201930202E-006
 8.672880085E-007
ZONE T="ZONE 001"
 STRANDID=0, SOLUTIONTIME=0
 I=17, J=1, K=1, ZONETYPE=Ordered
 DATAPACKING=BLOCK
 DT=(SINGLE SINGLE )
 1.000000000E+000 2.000000000E+000 3.000000000E+000 4.000000000E+000 5.000000000E+000
 6.000000000E+000 7.000000000E+000 8.000000000E+000 9.000000000E+000 1.000000000E+001
 1.100000000E+001 1.200000000E+001 1.300000000E+001 1.400000000E+001 1.500000000E+001
 1.600000000E+001 1.700000000E+001
 3.154489920E+008 1.261520000E+008 3.969000000E+007 6.994250000E+006 3.047970000E+005
 6.037269897E+002 1.273530006E+000 4.057469964E-001 8.665569872E-002 1.133270003E-002
 3.666420002E-003 9.328040178E-004 1.259270066E-004 3.856989861E-005 1.052229982E-005
 1.454229960E-006 4.146280048E-007
