TITLE     = "Graphics"
VARIABLES = "i"
"F"
ZONE T="ZONE 001"
 STRANDID=0, SOLUTIONTIME=0
 I=16, J=1, K=1, ZONETYPE=Ordered
 DATAPACKING=BLOCK
 DT=(SINGLE SINGLE )
 1.000000000E+000 2.000000000E+000 3.000000000E+000 4.000000000E+000 5.000000000E+000
 6.000000000E+000 7.000000000E+000 8.000000000E+000 9.000000000E+000 1.000000000E+001
 1.100000000E+001 1.200000000E+001 1.300000000E+001 1.400000000E+001 1.500000000E+001
 1.600000000E+001
 4.314339844E+003 3.719250000E+003 3.840589905E+002 1.008369980E+002 2.957399940E+001
 3.972009897E+000 8.864859939E-001 3.222469985E-001 4.757580161E-002 9.091169573E-003
 3.572080052E-003 5.608589854E-004 9.462959861E-005 3.934419874E-005 6.555720120E-006
 9.866090522E-007
ZONE T="ZONE 001"
 STRANDID=0, SOLUTIONTIME=0
 I=17, J=1, K=1, ZONETYPE=Ordered
 DATAPACKING=BLOCK
 DT=(SINGLE SINGLE )
 1.000000000E+000 2.000000000E+000 3.000000000E+000 4.000000000E+000 5.000000000E+000
 6.000000000E+000 7.000000000E+000 8.000000000E+000 9.000000000E+000 1.000000000E+001
 1.100000000E+001 1.200000000E+001 1.300000000E+001 1.400000000E+001 1.500000000E+001
 1.600000000E+001 1.700000000E+001
 5.241089844E+003 4.468959961E+003 5.313770142E+002 1.210169983E+002 3.666650009E+001
 5.429959774E+000 1.072700024E+000 3.969720006E-001 6.435529888E-002 1.111880038E-002
 4.398770165E-003 7.555810153E-004 1.175500001E-004 4.848780009E-005 8.805130165E-006
 1.250289984E-006 5.312879807E-007
ZONE T="ZONE 001"
 STRANDID=0, SOLUTIONTIME=0
 I=17, J=1, K=1, ZONETYPE=Ordered
 DATAPACKING=BLOCK
 DT=(SINGLE SINGLE )
 1.000000000E+000 2.000000000E+000 3.000000000E+000 4.000000000E+000 5.000000000E+000
 6.000000000E+000 7.000000000E+000 8.000000000E+000 9.000000000E+000 1.000000000E+001
 1.100000000E+001 1.200000000E+001 1.300000000E+001 1.400000000E+001 1.500000000E+001
 1.600000000E+001 1.700000000E+001
 6.265370117E+003 5.165029785E+003 7.008809814E+002 1.419570007E+002 4.359429932E+001
 7.082590103E+000 1.278169990E+000 4.679059982E-001 8.274939656E-002 1.343700010E-002
 5.165639799E-003 9.634169983E-004 1.445249945E-004 5.680530012E-005 1.114780025E-005
 1.567520030E-006 6.218950261E-007
ZONE T="ZONE 001"
 STRANDID=0, SOLUTIONTIME=0
 I=17, J=1, K=1, ZONETYPE=Ordered
 DATAPACKING=BLOCK
 DT=(SINGLE SINGLE )
 1.000000000E+000 2.000000000E+000 3.000000000E+000 4.000000000E+000 5.000000000E+000
 6.000000000E+000 7.000000000E+000 8.000000000E+000 9.000000000E+000 1.000000000E+001
 1.100000000E+001 1.200000000E+001 1.300000000E+001 1.400000000E+001 1.500000000E+001
 1.600000000E+001 1.700000000E+001
 7.767959961E+003 5.853729980E+003 9.132440186E+002 1.696170044E+002 5.099890137E+001
 9.165410042E+000 1.572790027E+000 5.425279737E-001 1.053360030E-001 1.685960032E-002
 5.964459851E-003 1.213639975E-003 1.849300024E-004 6.542909978E-005 1.391929982E-005
 2.045230076E-006 7.173700283E-007
