TITLE     = "Graphics"
VARIABLES = "j"
"hj"
ZONE T="ZONE 001"
 STRANDID=0, SOLUTIONTIME=0
 I=51, J=1, K=1, ZONETYPE=Ordered
 DATAPACKING=BLOCK
 DT=(SINGLE SINGLE )
 0.000000000E+000 1.000000000E+000 2.000000000E+000 3.000000000E+000 4.000000000E+000
 5.000000000E+000 6.000000000E+000 7.000000000E+000 8.000000000E+000 9.000000000E+000
 1.000000000E+001 1.100000000E+001 1.200000000E+001 1.300000000E+001 1.400000000E+001
 1.500000000E+001 1.600000000E+001 1.700000000E+001 1.800000000E+001 1.900000000E+001
 2.000000000E+001 2.100000000E+001 2.200000000E+001 2.300000000E+001 2.400000000E+001
 2.500000000E+001 2.600000000E+001 2.700000000E+001 2.800000000E+001 2.900000000E+001
 3.000000000E+001 3.100000000E+001 3.200000000E+001 3.300000000E+001 3.400000000E+001
 3.500000000E+001 3.600000000E+001 3.700000000E+001 3.800000000E+001 3.900000000E+001
 4.000000000E+001 4.100000000E+001 4.200000000E+001 4.300000000E+001 4.400000000E+001
 4.500000000E+001 4.600000000E+001 4.700000000E+001 4.800000000E+001 4.900000000E+001
 5.000000000E+001
 9.999999747E-005 1.158840023E-004 1.342920004E-004 1.556229981E-004 1.803430059E-004
 2.089890040E-004 2.421859972E-004 2.806560078E-004 3.252360038E-004 3.768980096E-004
 4.367659858E-004 5.061430275E-004 5.865410203E-004 6.797090173E-004 7.876770105E-004
 9.127940284E-004 1.057790010E-003 1.225810032E-003 1.420520013E-003 1.646160032E-003
 1.907640020E-003 2.210659906E-003 2.561809961E-003 2.968739951E-003 3.440300003E-003
 3.986769821E-003 4.620050080E-003 5.353909917E-003 6.204349920E-003 7.189869881E-003
 8.331939578E-003 9.655410424E-003 1.118910033E-002 1.296640001E-002 1.502609998E-002
 1.741290092E-002 2.017880045E-002 2.338409983E-002 2.709849924E-002 3.140290082E-002
 3.639110178E-002 4.217150062E-002 4.887019843E-002 5.663299933E-002 6.562879682E-002
 7.605350018E-002 8.813410252E-002 1.021339968E-001 1.183570027E-001 1.371569932E-001
 1.589439958E-001
ZONE T="ZONE 001"
 STRANDID=0, SOLUTIONTIME=0
 I=101, J=1, K=1, ZONETYPE=Ordered
 DATAPACKING=BLOCK
 DT=(SINGLE SINGLE )
 0.000000000E+000 1.000000000E+000 2.000000000E+000 3.000000000E+000 4.000000000E+000
 5.000000000E+000 6.000000000E+000 7.000000000E+000 8.000000000E+000 9.000000000E+000
 1.000000000E+001 1.100000000E+001 1.200000000E+001 1.300000000E+001 1.400000000E+001
 1.500000000E+001 1.600000000E+001 1.700000000E+001 1.800000000E+001 1.900000000E+001
 2.000000000E+001 2.100000000E+001 2.200000000E+001 2.300000000E+001 2.400000000E+001
 2.500000000E+001 2.600000000E+001 2.700000000E+001 2.800000000E+001 2.900000000E+001
 3.000000000E+001 3.100000000E+001 3.200000000E+001 3.300000000E+001 3.400000000E+001
 3.500000000E+001 3.600000000E+001 3.700000000E+001 3.800000000E+001 3.900000000E+001
 4.000000000E+001 4.100000000E+001 4.200000000E+001 4.300000000E+001 4.400000000E+001
 4.500000000E+001 4.600000000E+001 4.700000000E+001 4.800000000E+001 4.900000000E+001
 5.000000000E+001 5.100000000E+001 5.200000000E+001 5.300000000E+001 5.400000000E+001
 5.500000000E+001 5.600000000E+001 5.700000000E+001 5.800000000E+001 5.900000000E+001
 6.000000000E+001 6.100000000E+001 6.200000000E+001 6.300000000E+001 6.400000000E+001
 6.500000000E+001 6.600000000E+001 6.700000000E+001 6.800000000E+001 6.900000000E+001
 7.000000000E+001 7.100000000E+001 7.200000000E+001 7.300000000E+001 7.400000000E+001
 7.500000000E+001 7.600000000E+001 7.700000000E+001 7.800000000E+001 7.900000000E+001
 8.000000000E+001 8.100000000E+001 8.200000000E+001 8.300000000E+001 8.400000000E+001
 8.500000000E+001 8.600000000E+001 8.700000000E+001 8.800000000E+001 8.900000000E+001
 9.000000000E+001 9.100000000E+001 9.200000000E+001 9.300000000E+001 9.400000000E+001
 9.500000000E+001 9.600000000E+001 9.700000000E+001 9.800000000E+001 9.900000000E+001
 1.000000000E+002
 9.999999747E-005 1.067300036E-004 1.139130036E-004 1.215790035E-004 1.297620038E-004
 1.384950010E-004 1.478149934E-004 1.577630028E-004 1.683809969E-004 1.797129953E-004
 1.918079943E-004 2.047159942E-004 2.184939949E-004 2.331989963E-004 2.488929895E-004
 2.656439901E-004 2.835209889E-004 3.026020131E-004 3.229680005E-004 3.447039926E-004
 3.679019865E-004 3.926620120E-004 4.190879990E-004 4.472929868E-004 4.773960100E-004
 5.095250090E-004 5.438160151E-004 5.804150132E-004 6.194770103E-004 6.611680146E-004
 7.056649774E-004 7.531560259E-004 8.038440137E-004 8.579430287E-004 9.156829910E-004
 9.773080237E-004 1.043080003E-003 1.113279955E-003 1.188209979E-003 1.268169959E-003
 1.353519969E-003 1.444609952E-003 1.541830017E-003 1.645599958E-003 1.756350044E-003
 1.874550013E-003 2.000709996E-003 2.135359915E-003 2.279069973E-003 2.432449954E-003
 2.596159931E-003 2.770880004E-003 2.957359888E-003 3.156390041E-003 3.368820064E-003
 3.595540067E-003 3.837520024E-003 4.095780198E-003 4.371429794E-003 4.665629938E-003
 4.979630001E-003 5.314759910E-003 5.672439933E-003 6.054200232E-003 6.461650133E-003
 6.896520033E-003 7.360660005E-003 7.856030017E-003 8.384750225E-003 8.949040435E-003
 9.551309980E-003 1.019410044E-002 1.088020019E-002 1.161240041E-002 1.239390019E-002
 1.322809979E-002 1.411829982E-002 1.506850030E-002 1.608259976E-002 1.716499962E-002
 1.832019910E-002 1.955310069E-002 2.086899988E-002 2.227349952E-002 2.377250046E-002
 2.537240088E-002 2.707999945E-002 2.890250087E-002 3.084770031E-002 3.292369843E-002
 3.513950109E-002 3.750440106E-002 4.002840072E-002 4.272240028E-002 4.559760168E-002
 4.866629839E-002 5.194159970E-002 5.543730035E-002 5.916820094E-002 6.315019727E-002
 6.740029901E-002
ZONE T="ZONE 001"
 STRANDID=0, SOLUTIONTIME=0
 I=201, J=1, K=1, ZONETYPE=Ordered
 DATAPACKING=BLOCK
 DT=(SINGLE SINGLE )
 0.000000000E+000 1.000000000E+000 2.000000000E+000 3.000000000E+000 4.000000000E+000
 5.000000000E+000 6.000000000E+000 7.000000000E+000 8.000000000E+000 9.000000000E+000
 1.000000000E+001 1.100000000E+001 1.200000000E+001 1.300000000E+001 1.400000000E+001
 1.500000000E+001 1.600000000E+001 1.700000000E+001 1.800000000E+001 1.900000000E+001
 2.000000000E+001 2.100000000E+001 2.200000000E+001 2.300000000E+001 2.400000000E+001
 2.500000000E+001 2.600000000E+001 2.700000000E+001 2.800000000E+001 2.900000000E+001
 3.000000000E+001 3.100000000E+001 3.200000000E+001 3.300000000E+001 3.400000000E+001
 3.500000000E+001 3.600000000E+001 3.700000000E+001 3.800000000E+001 3.900000000E+001
 4.000000000E+001 4.100000000E+001 4.200000000E+001 4.300000000E+001 4.400000000E+001
 4.500000000E+001 4.600000000E+001 4.700000000E+001 4.800000000E+001 4.900000000E+001
 5.000000000E+001 5.100000000E+001 5.200000000E+001 5.300000000E+001 5.400000000E+001
 5.500000000E+001 5.600000000E+001 5.700000000E+001 5.800000000E+001 5.900000000E+001
 6.000000000E+001 6.100000000E+001 6.200000000E+001 6.300000000E+001 6.400000000E+001
 6.500000000E+001 6.600000000E+001 6.700000000E+001 6.800000000E+001 6.900000000E+001
 7.000000000E+001 7.100000000E+001 7.200000000E+001 7.300000000E+001 7.400000000E+001
 7.500000000E+001 7.600000000E+001 7.700000000E+001 7.800000000E+001 7.900000000E+001
 8.000000000E+001 8.100000000E+001 8.200000000E+001 8.300000000E+001 8.400000000E+001
 8.500000000E+001 8.600000000E+001 8.700000000E+001 8.800000000E+001 8.900000000E+001
 9.000000000E+001 9.100000000E+001 9.200000000E+001 9.300000000E+001 9.400000000E+001
 9.500000000E+001 9.600000000E+001 9.700000000E+001 9.800000000E+001 9.900000000E+001
 1.000000000E+002 1.010000000E+002 1.020000000E+002 1.030000000E+002 1.040000000E+002
 1.050000000E+002 1.060000000E+002 1.070000000E+002 1.080000000E+002 1.090000000E+002
 1.100000000E+002 1.110000000E+002 1.120000000E+002 1.130000000E+002 1.140000000E+002
 1.150000000E+002 1.160000000E+002 1.170000000E+002 1.180000000E+002 1.190000000E+002
 1.200000000E+002 1.210000000E+002 1.220000000E+002 1.230000000E+002 1.240000000E+002
 1.250000000E+002 1.260000000E+002 1.270000000E+002 1.280000000E+002 1.290000000E+002
 1.300000000E+002 1.310000000E+002 1.320000000E+002 1.330000000E+002 1.340000000E+002
 1.350000000E+002 1.360000000E+002 1.370000000E+002 1.380000000E+002 1.390000000E+002
 1.400000000E+002 1.410000000E+002 1.420000000E+002 1.430000000E+002 1.440000000E+002
 1.450000000E+002 1.460000000E+002 1.470000000E+002 1.480000000E+002 1.490000000E+002
 1.500000000E+002 1.510000000E+002 1.520000000E+002 1.530000000E+002 1.540000000E+002
 1.550000000E+002 1.560000000E+002 1.570000000E+002 1.580000000E+002 1.590000000E+002
 1.600000000E+002 1.610000000E+002 1.620000000E+002 1.630000000E+002 1.640000000E+002
 1.650000000E+002 1.660000000E+002 1.670000000E+002 1.680000000E+002 1.690000000E+002
 1.700000000E+002 1.710000000E+002 1.720000000E+002 1.730000000E+002 1.740000000E+002
 1.750000000E+002 1.760000000E+002 1.770000000E+002 1.780000000E+002 1.790000000E+002
 1.800000000E+002 1.810000000E+002 1.820000000E+002 1.830000000E+002 1.840000000E+002
 1.850000000E+002 1.860000000E+002 1.870000000E+002 1.880000000E+002 1.890000000E+002
 1.900000000E+002 1.910000000E+002 1.920000000E+002 1.930000000E+002 1.940000000E+002
 1.950000000E+002 1.960000000E+002 1.970000000E+002 1.980000000E+002 1.990000000E+002
 2.000000000E+002
 9.999999747E-005 1.028719998E-004 1.058269991E-004 1.088670033E-004 1.119939989E-004
 1.152109980E-004 1.185200017E-004 1.219249971E-004 1.254270028E-004 1.290289947E-004
 1.327359932E-004 1.365479984E-004 1.404700015E-004 1.445050002E-004 1.486560068E-004
 1.529260044E-004 1.573189948E-004 1.618370006E-004 1.664860029E-004 1.712679950E-004
 1.761869935E-004 1.812480041E-004 1.864539954E-004 1.918100024E-004 1.973189937E-004
 2.029869938E-004 2.088180045E-004 2.148159983E-004 2.209859958E-004 2.273340069E-004
 2.338640043E-004 2.405809937E-004 2.474909998E-004 2.545999887E-004 2.619129955E-004
 2.694359864E-004 2.771760046E-004 2.851370082E-004 2.933270007E-004 3.017529962E-004
 3.104200005E-004 3.193370067E-004 3.285089915E-004 3.379450063E-004 3.476520069E-004
 3.576379968E-004 3.679110087E-004 3.784789878E-004 3.893499961E-004 4.005329974E-004
 4.120380036E-004 4.238729889E-004 4.360490129E-004 4.485739919E-004 4.614579957E-004
 4.747129860E-004 4.883490037E-004 5.023760023E-004 5.168059724E-004 5.316499737E-004
 5.469209864E-004 5.626310012E-004 5.787920090E-004 5.954169901E-004 6.125199725E-004
 6.301130052E-004 6.482130266E-004 6.668320275E-004 6.859860150E-004 7.056900067E-004
 7.259600097E-004 7.468119729E-004 7.682630094E-004 7.903299993E-004 8.130319766E-004
 8.363850066E-004 8.604089962E-004 8.851229795E-004 9.105469799E-004 9.367010207E-004
 9.636069881E-004 9.912849637E-004 1.019760035E-003 1.049050014E-003 1.079180045E-003
 1.110180048E-003 1.142070047E-003 1.174869947E-003 1.208620030E-003 1.243339968E-003
 1.279050019E-003 1.315789996E-003 1.353580039E-003 1.392459963E-003 1.432460034E-003
 1.473610057E-003 1.515930053E-003 1.559479977E-003 1.604269957E-003 1.650350052E-003
 1.697749947E-003 1.746520051E-003 1.796690049E-003 1.848289976E-003 1.901380019E-003
 1.955999993E-003 2.012179932E-003 2.069979906E-003 2.129439963E-003 2.190599917E-003
 2.253530081E-003 2.318250015E-003 2.384840045E-003 2.453349996E-003 2.523809904E-003
 2.596310107E-003 2.670879941E-003 2.747599967E-003 2.826520009E-003 2.907709917E-003
 2.991229994E-003 3.077150090E-003 3.165540053E-003 3.256459953E-003 3.349999897E-003
 3.446229966E-003 3.545209998E-003 3.647049889E-003 3.751799930E-003 3.859570017E-003
 3.970430233E-003 4.084470216E-003 4.201800097E-003 4.322490189E-003 4.446640145E-003
 4.574370105E-003 4.705760162E-003 4.840929992E-003 4.979980178E-003 5.123020150E-003
 5.270170048E-003 5.421550013E-003 5.577280186E-003 5.737479776E-003 5.902280100E-003
 6.071819924E-003 6.246219855E-003 6.425640080E-003 6.610199809E-003 6.800069939E-003
 6.995399948E-003 7.196330000E-003 7.403039839E-003 7.615679875E-003 7.834429853E-003
 8.059459738E-003 8.290960453E-003 8.529109880E-003 8.774099872E-003 9.026120417E-003
 9.285380132E-003 9.552099742E-003 9.826470166E-003 1.010870002E-002 1.039910037E-002
 1.069779973E-002 1.100509986E-002 1.132120006E-002 1.164640021E-002 1.198089961E-002
 1.232500002E-002 1.267900039E-002 1.304319967E-002 1.341789961E-002 1.380330045E-002
 1.419979986E-002 1.460759994E-002 1.502719987E-002 1.545889955E-002 1.590289921E-002
 1.635969989E-002 1.682960056E-002 1.731299981E-002 1.781029999E-002 1.832189970E-002
 1.884810068E-002 1.938950084E-002 1.994650066E-002 2.051940002E-002 2.110880055E-002
 2.171510085E-002 2.233890072E-002 2.298050001E-002 2.364059910E-002 2.431970090E-002
 2.501820028E-002 2.573679946E-002 2.647610009E-002 2.723659948E-002 2.801889926E-002
 2.882369980E-002
ZONE T="ZONE 001"
 STRANDID=0, SOLUTIONTIME=0
 I=501, J=1, K=1, ZONETYPE=Ordered
 DATAPACKING=BLOCK
 DT=(SINGLE SINGLE )
 0.000000000E+000 1.000000000E+000 2.000000000E+000 3.000000000E+000 4.000000000E+000
 5.000000000E+000 6.000000000E+000 7.000000000E+000 8.000000000E+000 9.000000000E+000
 1.000000000E+001 1.100000000E+001 1.200000000E+001 1.300000000E+001 1.400000000E+001
 1.500000000E+001 1.600000000E+001 1.700000000E+001 1.800000000E+001 1.900000000E+001
 2.000000000E+001 2.100000000E+001 2.200000000E+001 2.300000000E+001 2.400000000E+001
 2.500000000E+001 2.600000000E+001 2.700000000E+001 2.800000000E+001 2.900000000E+001
 3.000000000E+001 3.100000000E+001 3.200000000E+001 3.300000000E+001 3.400000000E+001
 3.500000000E+001 3.600000000E+001 3.700000000E+001 3.800000000E+001 3.900000000E+001
 4.000000000E+001 4.100000000E+001 4.200000000E+001 4.300000000E+001 4.400000000E+001
 4.500000000E+001 4.600000000E+001 4.700000000E+001 4.800000000E+001 4.900000000E+001
 5.000000000E+001 5.100000000E+001 5.200000000E+001 5.300000000E+001 5.400000000E+001
 5.500000000E+001 5.600000000E+001 5.700000000E+001 5.800000000E+001 5.900000000E+001
 6.000000000E+001 6.100000000E+001 6.200000000E+001 6.300000000E+001 6.400000000E+001
 6.500000000E+001 6.600000000E+001 6.700000000E+001 6.800000000E+001 6.900000000E+001
 7.000000000E+001 7.100000000E+001 7.200000000E+001 7.300000000E+001 7.400000000E+001
 7.500000000E+001 7.600000000E+001 7.700000000E+001 7.800000000E+001 7.900000000E+001
 8.000000000E+001 8.100000000E+001 8.200000000E+001 8.300000000E+001 8.400000000E+001
 8.500000000E+001 8.600000000E+001 8.700000000E+001 8.800000000E+001 8.900000000E+001
 9.000000000E+001 9.100000000E+001 9.200000000E+001 9.300000000E+001 9.400000000E+001
 9.500000000E+001 9.600000000E+001 9.700000000E+001 9.800000000E+001 9.900000000E+001
 1.000000000E+002 1.010000000E+002 1.020000000E+002 1.030000000E+002 1.040000000E+002
 1.050000000E+002 1.060000000E+002 1.070000000E+002 1.080000000E+002 1.090000000E+002
 1.100000000E+002 1.110000000E+002 1.120000000E+002 1.130000000E+002 1.140000000E+002
 1.150000000E+002 1.160000000E+002 1.170000000E+002 1.180000000E+002 1.190000000E+002
 1.200000000E+002 1.210000000E+002 1.220000000E+002 1.230000000E+002 1.240000000E+002
 1.250000000E+002 1.260000000E+002 1.270000000E+002 1.280000000E+002 1.290000000E+002
 1.300000000E+002 1.310000000E+002 1.320000000E+002 1.330000000E+002 1.340000000E+002
 1.350000000E+002 1.360000000E+002 1.370000000E+002 1.380000000E+002 1.390000000E+002
 1.400000000E+002 1.410000000E+002 1.420000000E+002 1.430000000E+002 1.440000000E+002
 1.450000000E+002 1.460000000E+002 1.470000000E+002 1.480000000E+002 1.490000000E+002
 1.500000000E+002 1.510000000E+002 1.520000000E+002 1.530000000E+002 1.540000000E+002
 1.550000000E+002 1.560000000E+002 1.570000000E+002 1.580000000E+002 1.590000000E+002
 1.600000000E+002 1.610000000E+002 1.620000000E+002 1.630000000E+002 1.640000000E+002
 1.650000000E+002 1.660000000E+002 1.670000000E+002 1.680000000E+002 1.690000000E+002
 1.700000000E+002 1.710000000E+002 1.720000000E+002 1.730000000E+002 1.740000000E+002
 1.750000000E+002 1.760000000E+002 1.770000000E+002 1.780000000E+002 1.790000000E+002
 1.800000000E+002 1.810000000E+002 1.820000000E+002 1.830000000E+002 1.840000000E+002
 1.850000000E+002 1.860000000E+002 1.870000000E+002 1.880000000E+002 1.890000000E+002
 1.900000000E+002 1.910000000E+002 1.920000000E+002 1.930000000E+002 1.940000000E+002
 1.950000000E+002 1.960000000E+002 1.970000000E+002 1.980000000E+002 1.990000000E+002
 2.000000000E+002 2.010000000E+002 2.020000000E+002 2.030000000E+002 2.040000000E+002
 2.050000000E+002 2.060000000E+002 2.070000000E+002 2.080000000E+002 2.090000000E+002
 2.100000000E+002 2.110000000E+002 2.120000000E+002 2.130000000E+002 2.140000000E+002
 2.150000000E+002 2.160000000E+002 2.170000000E+002 2.180000000E+002 2.190000000E+002
 2.200000000E+002 2.210000000E+002 2.220000000E+002 2.230000000E+002 2.240000000E+002
 2.250000000E+002 2.260000000E+002 2.270000000E+002 2.280000000E+002 2.290000000E+002
 2.300000000E+002 2.310000000E+002 2.320000000E+002 2.330000000E+002 2.340000000E+002
 2.350000000E+002 2.360000000E+002 2.370000000E+002 2.380000000E+002 2.390000000E+002
 2.400000000E+002 2.410000000E+002 2.420000000E+002 2.430000000E+002 2.440000000E+002
 2.450000000E+002 2.460000000E+002 2.470000000E+002 2.480000000E+002 2.490000000E+002
 2.500000000E+002 2.510000000E+002 2.520000000E+002 2.530000000E+002 2.540000000E+002
 2.550000000E+002 2.560000000E+002 2.570000000E+002 2.580000000E+002 2.590000000E+002
 2.600000000E+002 2.610000000E+002 2.620000000E+002 2.630000000E+002 2.640000000E+002
 2.650000000E+002 2.660000000E+002 2.670000000E+002 2.680000000E+002 2.690000000E+002
 2.700000000E+002 2.710000000E+002 2.720000000E+002 2.730000000E+002 2.740000000E+002
 2.750000000E+002 2.760000000E+002 2.770000000E+002 2.780000000E+002 2.790000000E+002
 2.800000000E+002 2.810000000E+002 2.820000000E+002 2.830000000E+002 2.840000000E+002
 2.850000000E+002 2.860000000E+002 2.870000000E+002 2.880000000E+002 2.890000000E+002
 2.900000000E+002 2.910000000E+002 2.920000000E+002 2.930000000E+002 2.940000000E+002
 2.950000000E+002 2.960000000E+002 2.970000000E+002 2.980000000E+002 2.990000000E+002
 3.000000000E+002 3.010000000E+002 3.020000000E+002 3.030000000E+002 3.040000000E+002
 3.050000000E+002 3.060000000E+002 3.070000000E+002 3.080000000E+002 3.090000000E+002
 3.100000000E+002 3.110000000E+002 3.120000000E+002 3.130000000E+002 3.140000000E+002
 3.150000000E+002 3.160000000E+002 3.170000000E+002 3.180000000E+002 3.190000000E+002
 3.200000000E+002 3.210000000E+002 3.220000000E+002 3.230000000E+002 3.240000000E+002
 3.250000000E+002 3.260000000E+002 3.270000000E+002 3.280000000E+002 3.290000000E+002
 3.300000000E+002 3.310000000E+002 3.320000000E+002 3.330000000E+002 3.340000000E+002
 3.350000000E+002 3.360000000E+002 3.370000000E+002 3.380000000E+002 3.390000000E+002
 3.400000000E+002 3.410000000E+002 3.420000000E+002 3.430000000E+002 3.440000000E+002
 3.450000000E+002 3.460000000E+002 3.470000000E+002 3.480000000E+002 3.490000000E+002
 3.500000000E+002 3.510000000E+002 3.520000000E+002 3.530000000E+002 3.540000000E+002
 3.550000000E+002 3.560000000E+002 3.570000000E+002 3.580000000E+002 3.590000000E+002
 3.600000000E+002 3.610000000E+002 3.620000000E+002 3.630000000E+002 3.640000000E+002
 3.650000000E+002 3.660000000E+002 3.670000000E+002 3.680000000E+002 3.690000000E+002
 3.700000000E+002 3.710000000E+002 3.720000000E+002 3.730000000E+002 3.740000000E+002
 3.750000000E+002 3.760000000E+002 3.770000000E+002 3.780000000E+002 3.790000000E+002
 3.800000000E+002 3.810000000E+002 3.820000000E+002 3.830000000E+002 3.840000000E+002
 3.850000000E+002 3.860000000E+002 3.870000000E+002 3.880000000E+002 3.890000000E+002
 3.900000000E+002 3.910000000E+002 3.920000000E+002 3.930000000E+002 3.940000000E+002
 3.950000000E+002 3.960000000E+002 3.970000000E+002 3.980000000E+002 3.990000000E+002
 4.000000000E+002 4.010000000E+002 4.020000000E+002 4.030000000E+002 4.040000000E+002
 4.050000000E+002 4.060000000E+002 4.070000000E+002 4.080000000E+002 4.090000000E+002
 4.100000000E+002 4.110000000E+002 4.120000000E+002 4.130000000E+002 4.140000000E+002
 4.150000000E+002 4.160000000E+002 4.170000000E+002 4.180000000E+002 4.190000000E+002
 4.200000000E+002 4.210000000E+002 4.220000000E+002 4.230000000E+002 4.240000000E+002
 4.250000000E+002 4.260000000E+002 4.270000000E+002 4.280000000E+002 4.290000000E+002
 4.300000000E+002 4.310000000E+002 4.320000000E+002 4.330000000E+002 4.340000000E+002
 4.350000000E+002 4.360000000E+002 4.370000000E+002 4.380000000E+002 4.390000000E+002
 4.400000000E+002 4.410000000E+002 4.420000000E+002 4.430000000E+002 4.440000000E+002
 4.450000000E+002 4.460000000E+002 4.470000000E+002 4.480000000E+002 4.490000000E+002
 4.500000000E+002 4.510000000E+002 4.520000000E+002 4.530000000E+002 4.540000000E+002
 4.550000000E+002 4.560000000E+002 4.570000000E+002 4.580000000E+002 4.590000000E+002
 4.600000000E+002 4.610000000E+002 4.620000000E+002 4.630000000E+002 4.640000000E+002
 4.650000000E+002 4.660000000E+002 4.670000000E+002 4.680000000E+002 4.690000000E+002
 4.700000000E+002 4.710000000E+002 4.720000000E+002 4.730000000E+002 4.740000000E+002
 4.750000000E+002 4.760000000E+002 4.770000000E+002 4.780000000E+002 4.790000000E+002
 4.800000000E+002 4.810000000E+002 4.820000000E+002 4.830000000E+002 4.840000000E+002
 4.850000000E+002 4.860000000E+002 4.870000000E+002 4.880000000E+002 4.890000000E+002
 4.900000000E+002 4.910000000E+002 4.920000000E+002 4.930000000E+002 4.940000000E+002
 4.950000000E+002 4.960000000E+002 4.970000000E+002 4.980000000E+002 4.990000000E+002
 5.000000000E+002
 9.999999747E-005 1.009080006E-004 1.018240000E-004 1.027489998E-004 1.036820031E-004
 1.046230027E-004 1.055730027E-004 1.065320030E-004 1.074989996E-004 1.084749965E-004
 1.094600011E-004 1.104539988E-004 1.114569968E-004 1.124690025E-004 1.134909980E-004
 1.145209972E-004 1.155610007E-004 1.166099973E-004 1.176689984E-004 1.187379967E-004
 1.198160026E-004 1.209039983E-004 1.220019985E-004 1.231089991E-004 1.242269936E-004
 1.253549999E-004 1.264939929E-004 1.276419935E-004 1.288009953E-004 1.299709984E-004
 1.311509986E-004 1.323420001E-004 1.335429988E-004 1.347560028E-004 1.359799935E-004
 1.372139959E-004 1.384600037E-004 1.397180022E-004 1.409859979E-004 1.422670030E-004
 1.435580052E-004 1.448620023E-004 1.461770007E-004 1.475049939E-004 1.488440030E-004
 1.501960069E-004 1.515589975E-004 1.529360015E-004 1.543240069E-004 1.557259966E-004
 1.571400062E-004 1.585660066E-004 1.600060059E-004 1.614590001E-004 1.629250037E-004
 1.644050062E-004 1.658969995E-004 1.674039959E-004 1.689240016E-004 1.704580063E-004
 1.720059954E-004 1.735669939E-004 1.751429954E-004 1.767340000E-004 1.783390035E-004
 1.799580059E-004 1.815919968E-004 1.832410053E-004 1.849050022E-004 1.865840022E-004
 1.882780052E-004 1.899880008E-004 1.917129994E-004 1.934540051E-004 1.952099992E-004
 1.969830046E-004 1.987709984E-004 2.005760034E-004 2.023980051E-004 2.042349952E-004
 2.060900006E-004 2.079609985E-004 2.098499972E-004 2.117550030E-004 2.136779949E-004
 2.156179980E-004 2.175760019E-004 2.195520065E-004 2.215449931E-004 2.235569991E-004
 2.255870058E-004 2.276349987E-004 2.297019964E-004 2.317879989E-004 2.338930062E-004
 2.360170038E-004 2.381600061E-004 2.403219987E-004 2.425040002E-004 2.447059960E-004
 2.469279862E-004 2.491709893E-004 2.514329972E-004 2.537159889E-004 2.560199937E-004
 2.583450114E-004 2.606910130E-004 2.630579984E-004 2.654459968E-004 2.678569872E-004
 2.702889906E-004 2.727429965E-004 2.752199944E-004 2.777189948E-004 2.802409872E-004
 2.827850112E-004 2.853529877E-004 2.879440144E-004 2.905589936E-004 2.931969939E-004
 2.958590048E-004 2.985459869E-004 3.012570087E-004 3.039920121E-004 3.067519865E-004
 3.095380089E-004 3.123490023E-004 3.151849960E-004 3.180470085E-004 3.209350107E-004
 3.238490026E-004 3.267890133E-004 3.297569929E-004 3.327509912E-004 3.357719979E-004
 3.388210025E-004 3.418980050E-004 3.450030054E-004 3.481350141E-004 3.512960102E-004
 3.544859937E-004 3.577049938E-004 3.609530104E-004 3.642310039E-004 3.675380140E-004
 3.708750010E-004 3.742430126E-004 3.776410013E-004 3.810699855E-004 3.845299943E-004
 3.880219883E-004 3.915450070E-004 3.951010003E-004 3.986879892E-004 4.023090005E-004
 4.059619969E-004 4.096479970E-004 4.133679904E-004 4.171209875E-004 4.209089966E-004
 4.247309989E-004 4.285869945E-004 4.324789916E-004 4.364060005E-004 4.403690109E-004
 4.443670041E-004 4.484019883E-004 4.524739925E-004 4.565819982E-004 4.607280134E-004
 4.649120092E-004 4.691329959E-004 4.733930109E-004 4.776919959E-004 4.820289905E-004
 4.864060029E-004 4.908230039E-004 4.952800227E-004 4.997769720E-004 5.043150159E-004
 5.088950275E-004 5.135150277E-004 5.181779852E-004 5.228830269E-004 5.276310258E-004
 5.324219819E-004 5.372570013E-004 5.421349779E-004 5.470580072E-004 5.520259729E-004
 5.570380017E-004 5.620960146E-004 5.672000116E-004 5.723499926E-004 5.775470054E-004
 5.827919813E-004 5.880839890E-004 5.934240180E-004 5.988120101E-004 6.042490131E-004
 6.097360165E-004 6.152730202E-004 6.208600244E-004 6.264970289E-004 6.321860128E-004
 6.379259867E-004 6.437189877E-004 6.495640264E-004 6.554619758E-004 6.614140002E-004
 6.674199831E-004 6.734799827E-004 6.795949885E-004 6.857659901E-004 6.919929874E-004
 6.982770283E-004 7.046170067E-004 7.110150182E-004 7.174719940E-004 7.239860133E-004
 7.305599866E-004 7.371939719E-004 7.438880275E-004 7.506430265E-004 7.574590272E-004
 7.643370191E-004 7.712770021E-004 7.782800240E-004 7.853470161E-004 7.924790261E-004
 7.996750064E-004 8.069360047E-004 8.142630104E-004 8.216570131E-004 8.291180129E-004
 8.366460097E-004 8.442429826E-004 8.519089897E-004 8.596450207E-004 8.674500277E-004
 8.753269794E-004 8.832750027E-004 8.912960184E-004 8.993889787E-004 9.075559792E-004
 9.157959721E-004 9.241119842E-004 9.325030260E-004 9.409710183E-004 9.495149716E-004
 9.581369814E-004 9.668369894E-004 9.756159852E-004 9.844750166E-004 9.934139671E-004
 1.002429985E-003 1.011539949E-003 1.020719996E-003 1.029990031E-003 1.039340044E-003
 1.048780046E-003 1.058300026E-003 1.067909994E-003 1.077609952E-003 1.087400015E-003
 1.097270055E-003 1.107229968E-003 1.117289998E-003 1.127430005E-003 1.137670013E-003
 1.148000010E-003 1.158419997E-003 1.168939983E-003 1.179559971E-003 1.190269948E-003
 1.201080042E-003 1.211980009E-003 1.222989988E-003 1.234089956E-003 1.245300053E-003
 1.256600022E-003 1.268020016E-003 1.279529999E-003 1.291149994E-003 1.302869990E-003
 1.314699999E-003 1.326640020E-003 1.338690054E-003 1.350839972E-003 1.363110030E-003
 1.375479973E-003 1.387970056E-003 1.400580048E-003 1.413300051E-003 1.426129951E-003
 1.439079992E-003 1.452150056E-003 1.465330017E-003 1.478640013E-003 1.492060022E-003
 1.505609951E-003 1.519280020E-003 1.533080009E-003 1.547000022E-003 1.561049954E-003
 1.575220027E-003 1.589520019E-003 1.603959943E-003 1.618520007E-003 1.633220003E-003
 1.648050034E-003 1.663009985E-003 1.678109984E-003 1.693350030E-003 1.708730008E-003
 1.724240021E-003 1.739899977E-003 1.755699981E-003 1.771640033E-003 1.787730027E-003
 1.803959953E-003 1.820340054E-003 1.836869982E-003 1.853549969E-003 1.870380016E-003
 1.887360006E-003 1.904499950E-003 1.921799965E-003 1.939250040E-003 1.956850057E-003
 1.974619925E-003 1.992549980E-003 2.010650001E-003 2.028899966E-003 2.047329908E-003
 2.065920038E-003 2.084679902E-003 2.103609964E-003 2.122709993E-003 2.141979989E-003
 2.161429962E-003 2.181059914E-003 2.200860064E-003 2.220849972E-003 2.241010079E-003
 2.261359943E-003 2.281890018E-003 2.302610083E-003 2.323519904E-003 2.344619948E-003
 2.365909982E-003 2.387390006E-003 2.409070032E-003 2.430950059E-003 2.453020075E-003
 2.475300105E-003 2.497769892E-003 2.520449925E-003 2.543339971E-003 2.566430019E-003
 2.589740092E-003 2.613249933E-003 2.636980033E-003 2.660929924E-003 2.685090061E-003
 2.709469991E-003 2.734069945E-003 2.758899936E-003 2.783949953E-003 2.809230005E-003
 2.834740095E-003 2.860479988E-003 2.886449918E-003 2.912659897E-003 2.939109923E-003
 2.965799998E-003 2.992729889E-003 3.019900061E-003 3.047320060E-003 3.074989887E-003
 3.102910006E-003 3.131089965E-003 3.159519983E-003 3.188210074E-003 3.217160003E-003
 3.246370004E-003 3.275850089E-003 3.305600025E-003 3.335610032E-003 3.365899902E-003
 3.396460088E-003 3.427299904E-003 3.458420048E-003 3.489830066E-003 3.521519946E-003
 3.553489922E-003 3.585760016E-003 3.618319985E-003 3.651170060E-003 3.684330033E-003
 3.717780113E-003 3.751540091E-003 3.785609966E-003 3.819979960E-003 3.854670096E-003
 3.889669897E-003 3.924990073E-003 3.960629925E-003 3.996590152E-003 4.032880068E-003
 4.069500137E-003 4.106449895E-003 4.143740050E-003 4.181370139E-003 4.219329916E-003
 4.257650115E-003 4.296309780E-003 4.335320089E-003 4.374680109E-003 4.414409865E-003
 4.454489797E-003 4.494939931E-003 4.535750020E-003 4.576940089E-003 4.618499894E-003
 4.660440143E-003 4.702759907E-003 4.745460115E-003 4.788550083E-003 4.832029808E-003
 4.875900224E-003 4.920179956E-003 4.964860156E-003 5.009939894E-003 5.055429880E-003
 5.101330113E-003 5.147660151E-003 5.194399972E-003 5.241559818E-003 5.289160181E-003
 5.337189883E-003 5.385649856E-003 5.434549879E-003 5.483900197E-003 5.533690099E-003
 5.583940074E-003 5.634650122E-003 5.685810000E-003 5.737440195E-003 5.789539777E-003
 5.842110142E-003 5.895149894E-003 5.948679987E-003 6.002699956E-003 6.057200022E-003
 6.112209987E-003 6.167709827E-003 6.223709788E-003 6.280220114E-003 6.337250117E-003
 6.394790020E-003 6.452859845E-003 6.511449814E-003 6.570579950E-003 6.630240008E-003
 6.690450013E-003 6.751200184E-003 6.812499836E-003 6.874360144E-003 6.936780177E-003
 6.999770179E-003 7.063330151E-003 7.127460092E-003 7.192180026E-003 7.257489953E-003
 7.323389873E-003 7.389890030E-003 7.456989959E-003 7.524699904E-003 7.593030110E-003
 7.661969867E-003 7.731549907E-003 7.801750209E-003 7.872589864E-003 7.944080047E-003
 8.016210049E-003 8.089000359E-003 8.162450045E-003 8.236570284E-003 8.311360143E-003
 8.386829868E-003 8.462980390E-003 8.539830334E-003 8.617370389E-003 8.695620112E-003
 8.774580434E-003 8.854259737E-003 8.934649639E-003 9.015779942E-003 9.097649716E-003
 9.180259891E-003
